# Blending factor
# Time        	Scheme1       	Scheme2       	Blended       
0.0005        	321088	0	0
0.001         	321088	0	0
