# Histogram   
# Time        	binMidPoints  	dataCounts    	dataValues    
1.000000e-03	9.500000e+00	0	0.000000e+00
1.000000e-03	8.500000e+00	0	0.000000e+00
1.000000e-03	7.500000e+00	0	0.000000e+00
1.000000e-03	6.500000e+00	0	0.000000e+00
1.000000e-03	4.000000e+00	0	0.000000e+00
1.000000e-03	1.000000e+00	159	7.179181e-04
1.000000e-03	2.500000e+00	43405	4.879494e-01
1.000000e-03	7.500000e+00	43513	5.113327e-01
