# Momentum        
#
# Time            	(momentum_x momentum_y momentum_z)	volume            
1e-05             	(5.0202519972e-03 -1.7674673922e-10 -9.8317999864e-11)	5.0202519972e-03
2e-05             	(5.0202519972e-03 -6.4402516528e-09 -2.0207588876e-09)	5.0202519972e-03
3e-05             	(5.0202519972e-03 1.3946362735e-08 2.1766337493e-08)	5.0202519972e-03
4e-05             	(5.0202519972e-03 2.1352929448e-08 5.3481085730e-08)	5.0202519972e-03
5e-05             	(5.0202519972e-03 1.8344766763e-08 6.5732551973e-08)	5.0202519972e-03
6e-05             	(5.0202519972e-03 1.4755504501e-08 7.6860993561e-08)	5.0202519972e-03
7e-05             	(5.0202519972e-03 1.3137422139e-08 8.3323554324e-08)	5.0202519972e-03
8e-05             	(5.0202519972e-03 1.2081099747e-08 8.0531940697e-08)	5.0202519972e-03
9e-05             	(5.0202519972e-03 1.0733326194e-08 7.4958645072e-08)	5.0202519972e-03
0.0001            	(5.0202519972e-03 1.0332883772e-08 6.7145064265e-08)	5.0202519972e-03
0.00011           	(5.0202519972e-03 1.0217508973e-08 5.9959569733e-08)	5.0202519972e-03
0.00012           	(5.0202519972e-03 1.0147722353e-08 5.3091249043e-08)	5.0202519972e-03
0.00013           	(5.0202519972e-03 1.0101138413e-08 4.6748396879e-08)	5.0202519972e-03
0.00014           	(5.0202519972e-03 1.0016105889e-08 4.1139821410e-08)	5.0202519972e-03
0.00015           	(5.0202519972e-03 9.9182001233e-09 3.6114011993e-08)	5.0202519972e-03
0.00016           	(5.0202519972e-03 9.7822923766e-09 3.1526319727e-08)	5.0202519972e-03
0.00017           	(5.0202519972e-03 9.5871923139e-09 2.7363102322e-08)	5.0202519972e-03
0.00018           	(5.0202519972e-03 9.3603341245e-09 2.3631059096e-08)	5.0202519972e-03
0.00019           	(5.0202519972e-03 9.1540316731e-09 2.0236263607e-08)	5.0202519972e-03
0.0002            	(5.0202519972e-03 8.9637589263e-09 1.7162814557e-08)	5.0202519972e-03
0.00021           	(5.0202519972e-03 8.8154845720e-09 1.4328628902e-08)	5.0202519972e-03
0.00022           	(5.0202519972e-03 8.7050582096e-09 1.1697057253e-08)	5.0202519972e-03
0.00023           	(5.0202519972e-03 8.6274525873e-09 9.2424369504e-09)	5.0202519972e-03
0.00024           	(5.0202519972e-03 8.5695756510e-09 6.9161793642e-09)	5.0202519972e-03
0.00025           	(5.0202519972e-03 8.5276744257e-09 4.6994488768e-09)	5.0202519972e-03
0.00026           	(5.0202519972e-03 8.4997337266e-09 2.6199327739e-09)	5.0202519972e-03
0.00027           	(5.0202519972e-03 8.4762280899e-09 6.7980628436e-10)	5.0202519972e-03
0.00028           	(5.0202519972e-03 8.4522488791e-09 -1.1253345601e-09)	5.0202519972e-03
0.00029           	(5.0202519972e-03 8.4279863543e-09 -2.8030336556e-09)	5.0202519972e-03
0.0003            	(5.0202519972e-03 8.4000746337e-09 -4.3565854845e-09)	5.0202519972e-03
0.00031           	(5.0202519972e-03 8.3588543828e-09 -5.8069152483e-09)	5.0202519972e-03
0.00032           	(5.0202519972e-03 8.3072814390e-09 -7.1522965653e-09)	5.0202519972e-03
0.00033           	(5.0202519972e-03 8.2497874993e-09 -8.4028442408e-09)	5.0202519972e-03
0.00034           	(5.0202519972e-03 8.1869936293e-09 -9.5637420609e-09)	5.0202519972e-03
0.00035           	(5.0202519972e-03 8.1252339971e-09 -1.0647389927e-08)	5.0202519972e-03
0.00036           	(5.0202519972e-03 8.0600339019e-09 -1.1652222189e-08)	5.0202519972e-03
0.00037           	(5.0202519972e-03 8.0044664413e-09 -1.2591467487e-08)	5.0202519972e-03
0.00038           	(5.0202519972e-03 7.9580109100e-09 -1.3478321937e-08)	5.0202519972e-03
0.00039           	(5.0202519972e-03 7.9176991965e-09 -1.4321626303e-08)	5.0202519972e-03
0.0004            	(5.0202519972e-03 7.8834887487e-09 -1.5123665556e-08)	5.0202519972e-03
0.00041           	(5.0202519972e-03 7.8552503582e-09 -1.5886743985e-08)	5.0202519972e-03
0.00042           	(5.0202519972e-03 7.8303829170e-09 -1.6620538367e-08)	5.0202519972e-03
0.00043           	(5.0202519972e-03 7.8049239775e-09 -1.7327748823e-08)	5.0202519972e-03
0.00044           	(5.0202519972e-03 7.7802414935e-09 -1.8011562080e-08)	5.0202519972e-03
0.00045           	(5.0202519972e-03 7.7527029372e-09 -1.8672195571e-08)	5.0202519972e-03
0.00046           	(5.0202519972e-03 7.7248699049e-09 -1.9309727473e-08)	5.0202519972e-03
0.00047           	(5.0202519972e-03 7.6973040679e-09 -1.9926591371e-08)	5.0202519972e-03
0.00048           	(5.0202519972e-03 7.6639727223e-09 -2.0529152697e-08)	5.0202519972e-03
0.00049           	(5.0202519972e-03 7.6318112922e-09 -2.1110467605e-08)	5.0202519972e-03
0.0005            	(5.0202519972e-03 7.6007944095e-09 -2.1675754518e-08)	5.0202519972e-03
0.00051           	(5.0202519972e-03 7.5706320967e-09 -2.2225658339e-08)	5.0202519972e-03
0.00052           	(5.0202519972e-03 7.5423478781e-09 -2.2757063257e-08)	5.0202519972e-03
0.00053           	(5.0202519972e-03 7.5168862839e-09 -2.3268876832e-08)	5.0202519972e-03
0.00054           	(5.0202519972e-03 7.4945473401e-09 -2.3761709643e-08)	5.0202519972e-03
0.00055           	(5.0202519972e-03 7.4759611629e-09 -2.4235661252e-08)	5.0202519972e-03
0.00056           	(5.0202519972e-03 7.4576109897e-09 -2.4690973764e-08)	5.0202519972e-03
0.00057           	(5.0202519972e-03 7.4377479855e-09 -2.5128783274e-08)	5.0202519972e-03
0.00058           	(5.0202519972e-03 7.4203354023e-09 -2.5546968629e-08)	5.0202519972e-03
0.00059           	(5.0202519972e-03 7.4029802761e-09 -2.5952328607e-08)	5.0202519972e-03
0.0006            	(5.0202519972e-03 7.3885177442e-09 -2.6340435713e-08)	5.0202519972e-03
0.00061           	(5.0202519972e-03 7.3776694404e-09 -2.6712436950e-08)	5.0202519972e-03
0.00062           	(5.0202519972e-03 7.3691804936e-09 -2.7069528146e-08)	5.0202519972e-03
0.00063           	(5.0202519972e-03 7.3625367528e-09 -2.7412962913e-08)	5.0202519972e-03
0.00064           	(5.0202519972e-03 7.3586597588e-09 -2.7744164426e-08)	5.0202519972e-03
0.00065           	(5.0202519972e-03 7.3580344256e-09 -2.8064865562e-08)	5.0202519972e-03
0.00066           	(5.0202519972e-03 7.3572442393e-09 -2.8374590494e-08)	5.0202519972e-03
0.00067           	(5.0202519972e-03 7.3543164095e-09 -2.8672286118e-08)	5.0202519972e-03
0.00068           	(5.0202519972e-03 7.3519357303e-09 -2.8959801924e-08)	5.0202519972e-03
0.00069           	(5.0202519972e-03 7.3499158458e-09 -2.9237842190e-08)	5.0202519972e-03
0.0007            	(5.0202519972e-03 7.3490731919e-09 -2.9507534391e-08)	5.0202519972e-03
0.00071           	(5.0202519972e-03 7.3485966210e-09 -2.9768684268e-08)	5.0202519972e-03
0.00072           	(5.0202519972e-03 7.3488759368e-09 -3.0021371634e-08)	5.0202519972e-03
0.00073           	(5.0202519972e-03 7.3499459888e-09 -3.0265178234e-08)	5.0202519972e-03
0.00074           	(5.0202519972e-03 7.3497337674e-09 -3.0500830444e-08)	5.0202519972e-03
0.00075           	(5.0202519972e-03 7.3471892092e-09 -3.0727634523e-08)	5.0202519972e-03
0.00076           	(5.0202519972e-03 7.3435872593e-09 -3.0946293458e-08)	5.0202519972e-03
0.00077           	(5.0202519972e-03 7.3412033484e-09 -3.1159087336e-08)	5.0202519972e-03
0.00078           	(5.0202519972e-03 7.3379490266e-09 -3.1368765285e-08)	5.0202519972e-03
0.00079           	(5.0202519972e-03 7.3342674575e-09 -3.1573222366e-08)	5.0202519972e-03
0.0008            	(5.0202519972e-03 7.3300158074e-09 -3.1770133277e-08)	5.0202519972e-03
0.00081           	(5.0202519972e-03 7.3253995055e-09 -3.1957019547e-08)	5.0202519972e-03
0.00082           	(5.0202519972e-03 7.3184555265e-09 -3.2140170758e-08)	5.0202519972e-03
0.00083           	(5.0202519972e-03 7.3118021910e-09 -3.2317337459e-08)	5.0202519972e-03
0.00084           	(5.0202519972e-03 7.3071987644e-09 -3.2486617641e-08)	5.0202519972e-03
0.00085           	(5.0202519972e-03 7.3033895102e-09 -3.2648595502e-08)	5.0202519972e-03
0.00086           	(5.0202519972e-03 7.2950891205e-09 -3.2811309942e-08)	5.0202519972e-03
0.00087           	(5.0202519972e-03 7.2860005698e-09 -3.2966984659e-08)	5.0202519972e-03
0.00088           	(5.0202519972e-03 7.2789785202e-09 -3.3113900425e-08)	5.0202519972e-03
0.00089           	(5.0202519972e-03 7.2726943017e-09 -3.3253432753e-08)	5.0202519972e-03
0.0009            	(5.0202519972e-03 7.2654892700e-09 -3.3389528343e-08)	5.0202519972e-03
0.00091           	(5.0202519972e-03 7.2585895341e-09 -3.3520182840e-08)	5.0202519972e-03
0.00092           	(5.0202519972e-03 7.2488748860e-09 -3.3647261873e-08)	5.0202519972e-03
0.00093           	(5.0202519972e-03 7.2359370516e-09 -3.3765790394e-08)	5.0202519972e-03
0.00094           	(5.0202519972e-03 7.2226238462e-09 -3.3885021003e-08)	5.0202519972e-03
0.00095           	(5.0202519972e-03 7.2094584346e-09 -3.4000628764e-08)	5.0202519972e-03
0.00096           	(5.0202519972e-03 7.1910103951e-09 -3.4113005593e-08)	5.0202519972e-03
0.00097           	(5.0202519972e-03 7.1713710599e-09 -3.4218461164e-08)	5.0202519972e-03
0.00098           	(5.0202519972e-03 7.1502478234e-09 -3.4319065835e-08)	5.0202519972e-03
0.00099           	(5.0202519972e-03 7.1340322410e-09 -3.4413417040e-08)	5.0202519972e-03
0.001             	(5.0202519972e-03 7.1201902807e-09 -3.4502439985e-08)	5.0202519972e-03
0.00101           	(5.0202519972e-03 7.1104485260e-09 -3.4585013231e-08)	5.0202519972e-03
0.00102           	(5.0202519972e-03 7.1018063549e-09 -3.4668187088e-08)	5.0202519972e-03
0.00103           	(5.0202519972e-03 7.0959067441e-09 -3.4747211975e-08)	5.0202519972e-03
0.00104           	(5.0202519972e-03 7.0937915286e-09 -3.4824140261e-08)	5.0202519972e-03
0.00105           	(5.0202519972e-03 7.0927848736e-09 -3.4896556555e-08)	5.0202519972e-03
0.00106           	(5.0202519972e-03 7.0878240841e-09 -3.4967556279e-08)	5.0202519972e-03
0.00107           	(5.0202519972e-03 7.0816300635e-09 -3.5036650138e-08)	5.0202519972e-03
0.00108           	(5.0202519972e-03 7.0754719601e-09 -3.5104443614e-08)	5.0202519972e-03
0.00109           	(5.0202519972e-03 7.0663742776e-09 -3.5169995630e-08)	5.0202519972e-03
0.0011            	(5.0202519972e-03 7.0576078833e-09 -3.5233624220e-08)	5.0202519972e-03
0.00111           	(5.0202519972e-03 7.0474058316e-09 -3.5294124884e-08)	5.0202519972e-03
0.00112           	(5.0202519972e-03 7.0373508810e-09 -3.5350992080e-08)	5.0202519972e-03
0.00113           	(5.0202519972e-03 7.0269517535e-09 -3.5404282335e-08)	5.0202519972e-03
0.00114           	(5.0202519972e-03 7.0155010336e-09 -3.5453955327e-08)	5.0202519972e-03
0.00115           	(5.0202519972e-03 7.0031682041e-09 -3.5500622792e-08)	5.0202519972e-03
0.00116           	(5.0202519972e-03 6.9906454197e-09 -3.5544481600e-08)	5.0202519972e-03
0.00117           	(5.0202519972e-03 6.9786826551e-09 -3.5585464132e-08)	5.0202519972e-03
0.00118           	(5.0202519972e-03 6.9667295245e-09 -3.5622420022e-08)	5.0202519972e-03
0.00119           	(5.0202519972e-03 6.9545151248e-09 -3.5657602120e-08)	5.0202519972e-03
0.0012            	(5.0202519972e-03 6.9429299639e-09 -3.5689742802e-08)	5.0202519972e-03
0.00121           	(5.0202519972e-03 6.9316117406e-09 -3.5720960379e-08)	5.0202519972e-03
0.00122           	(5.0202519972e-03 6.9202368960e-09 -3.5749848475e-08)	5.0202519972e-03
0.00123           	(5.0202519972e-03 6.9088556978e-09 -3.5777906045e-08)	5.0202519972e-03
0.00124           	(5.0202519972e-03 6.8973566664e-09 -3.5803386682e-08)	5.0202519972e-03
0.00125           	(5.0202519972e-03 6.8857291781e-09 -3.5828053235e-08)	5.0202519972e-03
0.00126           	(5.0202519972e-03 6.8744557000e-09 -3.5850365686e-08)	5.0202519972e-03
0.00127           	(5.0202519972e-03 6.8630461551e-09 -3.5871995094e-08)	5.0202519972e-03
0.00128           	(5.0202519972e-03 6.8515369909e-09 -3.5891336119e-08)	5.0202519972e-03
0.00129           	(5.0202519972e-03 6.8400997627e-09 -3.5910150923e-08)	5.0202519972e-03
0.0013            	(5.0202519972e-03 6.8287861442e-09 -3.5926872834e-08)	5.0202519972e-03
0.00131           	(5.0202519972e-03 6.8172741120e-09 -3.5943268478e-08)	5.0202519972e-03
0.00132           	(5.0202519972e-03 6.8055142721e-09 -3.5956896857e-08)	5.0202519972e-03
0.00133           	(5.0202519972e-03 6.7937579746e-09 -3.5969823971e-08)	5.0202519972e-03
0.00134           	(5.0202519972e-03 6.7822725524e-09 -3.5980098557e-08)	5.0202519972e-03
0.00135           	(5.0202519972e-03 6.7707697320e-09 -3.5989958469e-08)	5.0202519972e-03
0.00136           	(5.0202519972e-03 6.7593276306e-09 -3.5997474257e-08)	5.0202519972e-03
0.00137           	(5.0202519972e-03 6.7479389942e-09 -3.6005111933e-08)	5.0202519972e-03
0.00138           	(5.0202519972e-03 6.7368636055e-09 -3.6010459247e-08)	5.0202519972e-03
0.00139           	(5.0202519972e-03 6.7260216152e-09 -3.6016290884e-08)	5.0202519972e-03
0.0014            	(5.0202519972e-03 6.7152656511e-09 -3.6020087396e-08)	5.0202519972e-03
0.00141           	(5.0202519972e-03 6.7042020888e-09 -3.6024235050e-08)	5.0202519972e-03
0.00142           	(5.0202519972e-03 6.6929664457e-09 -3.6026151540e-08)	5.0202519972e-03
0.00143           	(5.0202519972e-03 6.6813196743e-09 -3.6028446474e-08)	5.0202519972e-03
0.00144           	(5.0202519972e-03 6.6694969849e-09 -3.6028844008e-08)	5.0202519972e-03
0.00145           	(5.0202519972e-03 6.6571735335e-09 -3.6030145957e-08)	5.0202519972e-03
0.00146           	(5.0202519972e-03 6.6445588269e-09 -3.6029639179e-08)	5.0202519972e-03
0.00147           	(5.0202519972e-03 6.6313446009e-09 -3.6029799445e-08)	5.0202519972e-03
0.00148           	(5.0202519972e-03 6.6178875035e-09 -3.6028041765e-08)	5.0202519972e-03
0.00149           	(5.0202519972e-03 6.6039868719e-09 -3.6027178067e-08)	5.0202519972e-03
0.0015            	(5.0202519972e-03 6.5902295004e-09 -3.6024260671e-08)	5.0202519972e-03
0.00151           	(5.0202519972e-03 6.5756281760e-09 -3.6021811426e-08)	5.0202519972e-03
0.00152           	(5.0202519972e-03 6.5605112240e-09 -3.6017227683e-08)	5.0202519972e-03
0.00153           	(5.0202519972e-03 6.5443861677e-09 -3.6013028261e-08)	5.0202519972e-03
0.00154           	(5.0202519972e-03 6.5279840542e-09 -3.6006953292e-08)	5.0202519972e-03
0.00155           	(5.0202519972e-03 6.5111113012e-09 -3.6001696285e-08)	5.0202519972e-03
0.00156           	(5.0202519972e-03 6.4937018535e-09 -3.5994623437e-08)	5.0202519972e-03
0.00157           	(5.0202519972e-03 6.4756742638e-09 -3.5988484551e-08)	5.0202519972e-03
0.00158           	(5.0202519972e-03 6.4572343571e-09 -3.5980381656e-08)	5.0202519972e-03
0.00159           	(5.0202519972e-03 6.4381069162e-09 -3.5973004997e-08)	5.0202519972e-03
0.0016            	(5.0202519972e-03 6.4185536787e-09 -3.5963879278e-08)	5.0202519972e-03
0.00161           	(5.0202519972e-03 6.3979154130e-09 -3.5955632232e-08)	5.0202519972e-03
0.00162           	(5.0202519972e-03 6.3765724834e-09 -3.5945571963e-08)	5.0202519972e-03
0.00163           	(5.0202519972e-03 6.3544768230e-09 -3.5935960830e-08)	5.0202519972e-03
0.00164           	(5.0202519972e-03 6.3320612537e-09 -3.5924506070e-08)	5.0202519972e-03
0.00165           	(5.0202519972e-03 6.3089453088e-09 -3.5913106303e-08)	5.0202519972e-03
0.00166           	(5.0202519972e-03 6.2855863009e-09 -3.5899547470e-08)	5.0202519972e-03
0.00167           	(5.0202519972e-03 6.2617592718e-09 -3.5886106898e-08)	5.0202519972e-03
0.00168           	(5.0202519972e-03 6.2377645424e-09 -3.5870606954e-08)	5.0202519972e-03
0.00169           	(5.0202519972e-03 6.2133644543e-09 -3.5855217731e-08)	5.0202519972e-03
0.0017            	(5.0202519972e-03 6.1889036365e-09 -3.5837617038e-08)	5.0202519972e-03
0.00171           	(5.0202519972e-03 6.1641511304e-09 -3.5820083130e-08)	5.0202519972e-03
0.00172           	(5.0202519972e-03 6.1393064264e-09 -3.5800524216e-08)	5.0202519972e-03
0.00173           	(5.0202519972e-03 6.1140574022e-09 -3.5780948094e-08)	5.0202519972e-03
0.00174           	(5.0202519972e-03 6.0885638767e-09 -3.5759256172e-08)	5.0202519972e-03
0.00175           	(5.0202519972e-03 6.0626700346e-09 -3.5737552986e-08)	5.0202519972e-03
0.00176           	(5.0202519972e-03 6.0366971303e-09 -3.5713953549e-08)	5.0202519972e-03
0.00177           	(5.0202519972e-03 6.0104293736e-09 -3.5690742619e-08)	5.0202519972e-03
0.00178           	(5.0202519972e-03 5.9841732713e-09 -3.5665511474e-08)	5.0202519972e-03
0.00179           	(5.0202519972e-03 5.9573321082e-09 -3.5640011847e-08)	5.0202519972e-03
0.0018            	(5.0202519972e-03 5.9300889464e-09 -3.5612160015e-08)	5.0202519972e-03
0.00181           	(5.0202519972e-03 5.9022682987e-09 -3.5584702224e-08)	5.0202519972e-03
0.00182           	(5.0202519972e-03 5.8737420667e-09 -3.5555380000e-08)	5.0202519972e-03
0.00183           	(5.0202519972e-03 5.8451109343e-09 -3.5526116860e-08)	5.0202519972e-03
0.00184           	(5.0202519972e-03 5.8178184614e-09 -3.5495360355e-08)	5.0202519972e-03
0.00185           	(5.0202519972e-03 5.7902781382e-09 -3.5464538030e-08)	5.0202519972e-03
0.00186           	(5.0202519972e-03 5.7625777815e-09 -3.5432163966e-08)	5.0202519972e-03
0.00187           	(5.0202519972e-03 5.7345327722e-09 -3.5400042913e-08)	5.0202519972e-03
0.00188           	(5.0202519972e-03 5.7065217777e-09 -3.5366682916e-08)	5.0202519972e-03
0.00189           	(5.0202519972e-03 5.6782358152e-09 -3.5333718631e-08)	5.0202519972e-03
0.0019            	(5.0202519972e-03 5.6499679000e-09 -3.5299071995e-08)	5.0202519972e-03
0.00191           	(5.0202519972e-03 5.6216377361e-09 -3.5264692475e-08)	5.0202519972e-03
0.00192           	(5.0202519972e-03 5.5932576813e-09 -3.5228697945e-08)	5.0202519972e-03
0.00193           	(5.0202519972e-03 5.5646154707e-09 -3.5192949995e-08)	5.0202519972e-03
0.00194           	(5.0202519972e-03 5.5359154697e-09 -3.5155665764e-08)	5.0202519972e-03
0.00195           	(5.0202519972e-03 5.5072424190e-09 -3.5118764128e-08)	5.0202519972e-03
0.00196           	(5.0202519972e-03 5.4788595846e-09 -3.5080500766e-08)	5.0202519972e-03
0.00197           	(5.0202519972e-03 5.4506684945e-09 -3.5042353668e-08)	5.0202519972e-03
0.00198           	(5.0202519972e-03 5.4227464623e-09 -3.5002810872e-08)	5.0202519972e-03
0.00199           	(5.0202519972e-03 5.3951033689e-09 -3.4963473832e-08)	5.0202519972e-03
0.002             	(5.0202519972e-03 5.3677004751e-09 -3.4922713862e-08)	5.0202519972e-03
0.00201           	(5.0202519972e-03 5.3404756332e-09 -3.4882245789e-08)	5.0202519972e-03
0.00202           	(5.0202519972e-03 5.3134128005e-09 -3.4840643718e-08)	5.0202519972e-03
0.00203           	(5.0202519972e-03 5.2865428371e-09 -3.4799537173e-08)	5.0202519972e-03
0.00204           	(5.0202519972e-03 5.2607975205e-09 -3.4757010086e-08)	5.0202519972e-03
0.00205           	(5.0202519972e-03 5.2354441270e-09 -3.4715422325e-08)	5.0202519972e-03
0.00206           	(5.0202519972e-03 5.2111499396e-09 -3.4672048927e-08)	5.0202519972e-03
0.00207           	(5.0202519972e-03 5.1865785777e-09 -3.4630193034e-08)	5.0202519972e-03
0.00208           	(5.0202519972e-03 5.1621322922e-09 -3.4587318919e-08)	5.0202519972e-03
0.00209           	(5.0202519972e-03 5.1377060837e-09 -3.4545108209e-08)	5.0202519972e-03
0.0021            	(5.0202519972e-03 5.1132841341e-09 -3.4501597531e-08)	5.0202519972e-03
0.00211           	(5.0202519972e-03 5.0885655711e-09 -3.4458803721e-08)	5.0202519972e-03
0.00212           	(5.0202519972e-03 5.0642513926e-09 -3.4415823319e-08)	5.0202519972e-03
0.00213           	(5.0202519972e-03 5.0400803296e-09 -3.4373983138e-08)	5.0202519972e-03
0.00214           	(5.0202519972e-03 5.0163029049e-09 -3.4330581691e-08)	5.0202519972e-03
0.00215           	(5.0202519972e-03 4.9926116255e-09 -3.4287898752e-08)	5.0202519972e-03
0.00216           	(5.0202519972e-03 4.9689873835e-09 -3.4244402738e-08)	5.0202519972e-03
0.00217           	(5.0202519972e-03 4.9452480671e-09 -3.4201608654e-08)	5.0202519972e-03
0.00218           	(5.0202519972e-03 4.9214620600e-09 -3.4157963391e-08)	5.0202519972e-03
0.00219           	(5.0202519972e-03 4.8976402913e-09 -3.4115098561e-08)	5.0202519972e-03
0.0022            	(5.0202519972e-03 4.8736968252e-09 -3.4071518934e-08)	5.0202519972e-03
0.00221           	(5.0202519972e-03 4.8496122938e-09 -3.4028835477e-08)	5.0202519972e-03
0.00222           	(5.0202519972e-03 4.8254278906e-09 -3.3985323823e-08)	5.0202519972e-03
0.00223           	(5.0202519972e-03 4.8011018839e-09 -3.3942805045e-08)	5.0202519972e-03
0.00224           	(5.0202519972e-03 4.7767469331e-09 -3.3899465834e-08)	5.0202519972e-03
0.00225           	(5.0202519972e-03 4.7522525262e-09 -3.3856876249e-08)	5.0202519972e-03
0.00226           	(5.0202519972e-03 4.7277284203e-09 -3.3813391945e-08)	5.0202519972e-03
0.00227           	(5.0202519972e-03 4.7030768284e-09 -3.3770636698e-08)	5.0202519972e-03
0.00228           	(5.0202519972e-03 4.6785354149e-09 -3.3726946655e-08)	5.0202519972e-03
0.00229           	(5.0202519972e-03 4.6537152536e-09 -3.3683877489e-08)	5.0202519972e-03
0.0023            	(5.0202519972e-03 4.6289315992e-09 -3.3639812967e-08)	5.0202519972e-03
0.00231           	(5.0202519972e-03 4.6038599350e-09 -3.3596241336e-08)	5.0202519972e-03
0.00232           	(5.0202519972e-03 4.5788601149e-09 -3.3551650090e-08)	5.0202519972e-03
0.00233           	(5.0202519972e-03 4.5537880510e-09 -3.3507403158e-08)	5.0202519972e-03
0.00234           	(5.0202519972e-03 4.5289782565e-09 -3.3462148731e-08)	5.0202519972e-03
0.00235           	(5.0202519972e-03 4.5041745277e-09 -3.3417283464e-08)	5.0202519972e-03
0.00236           	(5.0202519972e-03 4.4795257760e-09 -3.3371482391e-08)	5.0202519972e-03
0.00237           	(5.0202519972e-03 4.4548816121e-09 -3.3326182951e-08)	5.0202519972e-03
0.00238           	(5.0202519972e-03 4.4304588212e-09 -3.3279969664e-08)	5.0202519972e-03
0.00239           	(5.0202519972e-03 4.4060901774e-09 -3.3234254233e-08)	5.0202519972e-03
0.0024            	(5.0202519972e-03 4.3814576183e-09 -3.3187778144e-08)	5.0202519972e-03
0.00241           	(5.0202519972e-03 4.3563882636e-09 -3.3141606064e-08)	5.0202519972e-03
0.00242           	(5.0202519972e-03 4.3311477240e-09 -3.3094694135e-08)	5.0202519972e-03
0.00243           	(5.0202519972e-03 4.3051714889e-09 -3.3047735090e-08)	5.0202519972e-03
0.00244           	(5.0202519972e-03 4.2794541908e-09 -3.2999999578e-08)	5.0202519972e-03
0.00245           	(5.0202519972e-03 4.2535544507e-09 -3.2952417180e-08)	5.0202519972e-03
0.00246           	(5.0202519972e-03 4.2281759120e-09 -3.2904231303e-08)	5.0202519972e-03
0.00247           	(5.0202519972e-03 4.2020616986e-09 -3.2856832645e-08)	5.0202519972e-03
0.00248           	(5.0202519972e-03 4.1764719168e-09 -3.2808936021e-08)	5.0202519972e-03
0.00249           	(5.0202519972e-03 4.1504909199e-09 -3.2761214687e-08)	5.0202519972e-03
0.0025            	(5.0202519972e-03 4.1246620539e-09 -3.2713013272e-08)	5.0202519972e-03
0.00251           	(5.0202519972e-03 4.0984415549e-09 -3.2665135726e-08)	5.0202519972e-03
0.00252           	(5.0202519972e-03 4.0726002626e-09 -3.2616990764e-08)	5.0202519972e-03
0.00253           	(5.0202519972e-03 4.0464001642e-09 -3.2569413032e-08)	5.0202519972e-03
0.00254           	(5.0202519972e-03 4.0200414010e-09 -3.2521454519e-08)	5.0202519972e-03
0.00255           	(5.0202519972e-03 3.9930792339e-09 -3.2473892081e-08)	5.0202519972e-03
0.00256           	(5.0202519972e-03 3.9660220374e-09 -3.2425667216e-08)	5.0202519972e-03
0.00257           	(5.0202519972e-03 3.9388299616e-09 -3.2377839541e-08)	5.0202519972e-03
0.00258           	(5.0202519972e-03 3.9117241553e-09 -3.2329320523e-08)	5.0202519972e-03
0.00259           	(5.0202519972e-03 3.8847936963e-09 -3.2281274501e-08)	5.0202519972e-03
0.0026            	(5.0202519972e-03 3.8577499697e-09 -3.2232472202e-08)	5.0202519972e-03
0.00261           	(5.0202519972e-03 3.8308164688e-09 -3.2184425664e-08)	5.0202519972e-03
0.00262           	(5.0202519972e-03 3.8041245385e-09 -3.2135474179e-08)	5.0202519972e-03
0.00263           	(5.0202519972e-03 3.7774444091e-09 -3.2087594409e-08)	5.0202519972e-03
0.00264           	(5.0202519972e-03 3.7506121425e-09 -3.2038549335e-08)	5.0202519972e-03
0.00265           	(5.0202519972e-03 3.7236637807e-09 -3.1990051510e-08)	5.0202519972e-03
0.00266           	(5.0202519972e-03 3.6966367650e-09 -3.1940587807e-08)	5.0202519972e-03
0.00267           	(5.0202519972e-03 3.6694860178e-09 -3.1892001798e-08)	5.0202519972e-03
0.00268           	(5.0202519972e-03 3.6422440503e-09 -3.1842352044e-08)	5.0202519972e-03
0.00269           	(5.0202519972e-03 3.6147063194e-09 -3.1793680538e-08)	5.0202519972e-03
0.0027            	(5.0202519972e-03 3.5870275353e-09 -3.1743898158e-08)	5.0202519972e-03
0.00271           	(5.0202519972e-03 3.5592049033e-09 -3.1694939073e-08)	5.0202519972e-03
0.00272           	(5.0202519972e-03 3.5314097336e-09 -3.1644876451e-08)	5.0202519972e-03
0.00273           	(5.0202519972e-03 3.5036505923e-09 -3.1595176940e-08)	5.0202519972e-03
0.00274           	(5.0202519972e-03 3.4750839352e-09 -3.1545245522e-08)	5.0202519972e-03
0.00275           	(5.0202519972e-03 3.4464454691e-09 -3.1495797977e-08)	5.0202519972e-03
0.00276           	(5.0202519972e-03 3.4178881952e-09 -3.1445104565e-08)	5.0202519972e-03
0.00277           	(5.0202519972e-03 3.3891002426e-09 -3.1395291475e-08)	5.0202519972e-03
0.00278           	(5.0202519972e-03 3.3603395958e-09 -3.1344856125e-08)	5.0202519972e-03
0.00279           	(5.0202519972e-03 3.3316200551e-09 -3.1295254985e-08)	5.0202519972e-03
0.0028            	(5.0202519972e-03 3.3026063839e-09 -3.1244877770e-08)	5.0202519972e-03
0.00281           	(5.0202519972e-03 3.2735371105e-09 -3.1195002385e-08)	5.0202519972e-03
0.00282           	(5.0202519972e-03 3.2443868992e-09 -3.1144165700e-08)	5.0202519972e-03
0.00283           	(5.0202519972e-03 3.2150738451e-09 -3.1093515318e-08)	5.0202519972e-03
0.00284           	(5.0202519972e-03 3.1856331207e-09 -3.1042182341e-08)	5.0202519972e-03
0.00285           	(5.0202519972e-03 3.1562348502e-09 -3.0991387485e-08)	5.0202519972e-03
0.00286           	(5.0202519972e-03 3.1266165577e-09 -3.0939898672e-08)	5.0202519972e-03
0.00287           	(5.0202519972e-03 3.0968006967e-09 -3.0888767960e-08)	5.0202519972e-03
0.00288           	(5.0202519972e-03 3.0666002933e-09 -3.0836645171e-08)	5.0202519972e-03
0.00289           	(5.0202519972e-03 3.0362663382e-09 -3.0784985331e-08)	5.0202519972e-03
0.0029            	(5.0202519972e-03 3.0060092847e-09 -3.0732519749e-08)	5.0202519972e-03
0.00291           	(5.0202519972e-03 2.9760108231e-09 -3.0680874768e-08)	5.0202519972e-03
0.00292           	(5.0202519972e-03 2.9461382912e-09 -3.0628532335e-08)	5.0202519972e-03
0.00293           	(5.0202519972e-03 2.9159854295e-09 -3.0576706408e-08)	5.0202519972e-03
0.00294           	(5.0202519972e-03 2.8853748458e-09 -3.0524265172e-08)	5.0202519972e-03
0.00295           	(5.0202519972e-03 2.8541180149e-09 -3.0472105134e-08)	5.0202519972e-03
0.00296           	(5.0202519972e-03 2.8225711844e-09 -3.0419167762e-08)	5.0202519972e-03
0.00297           	(5.0202519972e-03 2.7910100493e-09 -3.0366576399e-08)	5.0202519972e-03
0.00298           	(5.0202519972e-03 2.7595401383e-09 -3.0313751819e-08)	5.0202519972e-03
0.00299           	(5.0202519972e-03 2.7285958507e-09 -3.0261557133e-08)	5.0202519972e-03
0.003             	(5.0202519972e-03 2.6978347500e-09 -3.0209040198e-08)	5.0202519972e-03
0.00301           	(5.0202519972e-03 2.6665970521e-09 -3.0156803200e-08)	5.0202519972e-03
0.00302           	(5.0202519972e-03 2.6350631875e-09 -3.0104137612e-08)	5.0202519972e-03
0.00303           	(5.0202519972e-03 2.6031365282e-09 -3.0051865373e-08)	5.0202519972e-03
0.00304           	(5.0202519972e-03 2.5711749864e-09 -2.9999580784e-08)	5.0202519972e-03
0.00305           	(5.0202519972e-03 2.5390789455e-09 -2.9947691225e-08)	5.0202519972e-03
0.00306           	(5.0202519972e-03 2.5064585562e-09 -2.9895115199e-08)	5.0202519972e-03
0.00307           	(5.0202519972e-03 2.4734977330e-09 -2.9842681660e-08)	5.0202519972e-03
0.00308           	(5.0202519972e-03 2.4402777478e-09 -2.9789385764e-08)	5.0202519972e-03
0.00309           	(5.0202519972e-03 2.4068370132e-09 -2.9736443014e-08)	5.0202519972e-03
0.0031            	(5.0202519972e-03 2.3728287955e-09 -2.9683324714e-08)	5.0202519972e-03
0.00311           	(5.0202519972e-03 2.3385460284e-09 -2.9630334649e-08)	5.0202519972e-03
0.00312           	(5.0202519972e-03 2.3037563561e-09 -2.9576521685e-08)	5.0202519972e-03
0.00313           	(5.0202519972e-03 2.2688069291e-09 -2.9522898198e-08)	5.0202519972e-03
0.00314           	(5.0202519972e-03 2.2339326970e-09 -2.9468666583e-08)	5.0202519972e-03
0.00315           	(5.0202519972e-03 2.1985505587e-09 -2.9415082173e-08)	5.0202519972e-03
0.00316           	(5.0202519972e-03 2.1628655771e-09 -2.9361106712e-08)	5.0202519972e-03
0.00317           	(5.0202519972e-03 2.1277647879e-09 -2.9308164994e-08)	5.0202519972e-03
0.00318           	(5.0202519972e-03 2.0924782712e-09 -2.9254389957e-08)	5.0202519972e-03
0.00319           	(5.0202519972e-03 2.0576597442e-09 -2.9200781495e-08)	5.0202519972e-03
0.0032            	(5.0202519972e-03 2.0228419054e-09 -2.9146129976e-08)	5.0202519972e-03
0.00321           	(5.0202519972e-03 1.9881195429e-09 -2.9091760930e-08)	5.0202519972e-03
0.00322           	(5.0202519972e-03 1.9533405850e-09 -2.9036077091e-08)	5.0202519972e-03
0.00323           	(5.0202519972e-03 1.9190417251e-09 -2.8980638760e-08)	5.0202519972e-03
0.00324           	(5.0202519972e-03 1.8843981812e-09 -2.8924348172e-08)	5.0202519972e-03
0.00325           	(5.0202519972e-03 1.8499076688e-09 -2.8868796989e-08)	5.0202519972e-03
0.00326           	(5.0202519972e-03 1.8152595563e-09 -2.8811426117e-08)	5.0202519972e-03
0.00327           	(5.0202519972e-03 1.7806107465e-09 -2.8753180095e-08)	5.0202519972e-03
0.00328           	(5.0202519972e-03 1.7456198998e-09 -2.8694075667e-08)	5.0202519972e-03
0.00329           	(5.0202519972e-03 1.7105193131e-09 -2.8635294798e-08)	5.0202519972e-03
0.0033            	(5.0202519972e-03 1.6752962094e-09 -2.8575927853e-08)	5.0202519972e-03
0.00331           	(5.0202519972e-03 1.6404587293e-09 -2.8517052016e-08)	5.0202519972e-03
0.00332           	(5.0202519972e-03 1.6056552721e-09 -2.8457658679e-08)	5.0202519972e-03