# Region        : all region0
# Cells         : 321088
# Volume        : 5.02025200e-03
# Time          	none(p)	none(U)
0.002           
0.004           
0.006           
0.008           
0.01            
0.012           
0.014           
0.016           
0.018           
0.02            
0.022           
0.024           
0.026           
0.028           
0.03            
0.032           
0.034           
0.036           
0.038           
0.04            
0.042           
0.044           
0.046           
0.048           
0.05            
0.052           
0.054           
0.056           
0.058           
0.06            
0.062           
0.064           
0.066           
0.068           
0.07            
0.072           
0.074           
0.076           
0.078           
0.08            
0.082           
0.084           
0.086           
0.088           
0.09            
0.092           
0.094           
0.096           
0.098           
0.1             
