# Continuity error
# Time            # Local           # Global          # Cumulative      
0.001             7.4296231067e-12	2.8431733507e-13	2.8431733507e-13
