# Region        : all region0
# Cells         : 321088
# Volume        : 5.02025200e-03
# Time          	volIntegrate(p)	volIntegrate(U)
