# Value averages  
# Time            	momentum_x        	momentum_y        	momentum_z        
1e-05	5.0202519972e-03	-1.7674673922e-10	-9.8317999864e-11
2e-05	5.0202509986e-03	-3.3084993264e-09	-1.0595384438e-09
3e-05	5.0202506657e-03	2.4431219116e-09	6.5490864977e-09
4e-05	5.0202504993e-03	7.1705831119e-09	1.8282076932e-08
5e-05	5.0202503994e-03	9.4054139526e-09	2.7772174795e-08
6e-05	5.0202503329e-03	1.0297101250e-08	3.5953652593e-08
7e-05	5.0202502853e-03	1.0702860734e-08	4.2720782332e-08
8e-05	5.0202502497e-03	1.0875137843e-08	4.7447182837e-08
9e-05	5.0202502219e-03	1.0859381022e-08	5.0504007452e-08
0.0001	5.0202501997e-03	1.0806728677e-08	5.2168108627e-08
0.00011	5.0202501816e-03	1.0753164725e-08	5.2876426521e-08
0.00012	5.0202501664e-03	1.0702710446e-08	5.2894330920e-08
0.00013	5.0202501536e-03	1.0656433955e-08	5.2421562991e-08
0.00014	5.0202501427e-03	1.0610693492e-08	5.1615724529e-08
0.00015	5.0202501331e-03	1.0564526875e-08	5.0582275600e-08
0.00016	5.0202501248e-03	1.0515637211e-08	4.9391277608e-08
0.00017	5.0202501175e-03	1.0461022666e-08	4.8095501431e-08
0.00018	5.0202501110e-03	1.0399873174e-08	4.6736365616e-08
0.00019	5.0202501051e-03	1.0334302351e-08	4.5341625558e-08
0.0002	5.0202500999e-03	1.0265775096e-08	4.3932686828e-08
0.00021	5.0202500951e-03	1.0196713694e-08	4.2522969091e-08
0.00022	5.0202500908e-03	1.0128910964e-08	4.1121789966e-08
0.00023	5.0202500868e-03	1.0063630243e-08	3.9735732998e-08
0.00024	5.0202500832e-03	1.0001377860e-08	3.8368251724e-08
0.00025	5.0202500799e-03	9.9424298970e-09	3.7021499635e-08
0.00026	5.0202500768e-03	9.8869414126e-09	3.5698362491e-08
0.00027	5.0202500740e-03	9.8346926330e-09	3.4401378825e-08
0.00028	5.0202500713e-03	9.7853197100e-09	3.3132567623e-08
0.00029	5.0202500689e-03	9.7385151501e-09	3.1893409115e-08
0.0003	5.0202500666e-03	9.6939005878e-09	3.0685076084e-08
0.00031	5.0202500644e-03	9.6508344317e-09	2.9507914927e-08
0.00032	5.0202500624e-03	9.6088482637e-09	2.8362283170e-08
0.00033	5.0202500605e-03	9.5676645606e-09	2.7248188296e-08
0.00034	5.0202500587e-03	9.5270566656e-09	2.6165484586e-08
0.00035	5.0202500571e-03	9.4870044856e-09	2.5113688231e-08
0.00036	5.0202500555e-03	9.4473663028e-09	2.4092412661e-08
0.00037	5.0202500540e-03	9.4083689038e-09	2.3100957041e-08
0.00038	5.0202500526e-03	9.3702016818e-09	2.2138343581e-08
0.00039	5.0202500512e-03	9.3329580050e-09	2.1203473120e-08
0.0004	5.0202500499e-03	9.2967212937e-09	2.0295295311e-08
0.00041	5.0202500487e-03	9.2615634965e-09	1.9412805708e-08
0.00042	5.0202500476e-03	9.2274877599e-09	1.8554869991e-08
0.00043	5.0202500464e-03	9.1944048134e-09	1.7720391376e-08
0.00044	5.0202500454e-03	9.1622646476e-09	1.6908302635e-08
0.00045	5.0202500444e-03	9.1309410208e-09	1.6117624054e-08
0.00046	5.0202500434e-03	9.1003741936e-09	1.5347464142e-08
0.00047	5.0202500425e-03	9.0705216397e-09	1.4596952907e-08
0.00048	5.0202500416e-03	9.0412184525e-09	1.3865158860e-08
0.00049	5.0202500408e-03	9.0124549856e-09	1.3151369600e-08
0.0005	5.0202500399e-03	8.9842217482e-09	1.2454826470e-08
0.00051	5.0202500392e-03	8.9565042176e-09	1.1774816072e-08
0.00052	5.0202500384e-03	8.9293088630e-09	1.1110740668e-08
0.00053	5.0202500377e-03	8.9026594205e-09	1.0462067947e-08
0.00054	5.0202500370e-03	8.8765833396e-09	9.8282938585e-09
0.00055	5.0202500363e-03	8.8511175302e-09	9.2089493954e-09
0.00056	5.0202500357e-03	8.8262334641e-09	8.6035929328e-09
0.00057	5.0202500350e-03	8.8018740524e-09	8.0117963987e-09
0.00058	5.0202500344e-03	8.7780544552e-09	7.4331967133e-09
0.00059	5.0202500339e-03	8.7547481911e-09	6.8673398202e-09
0.0006	5.0202500333e-03	8.7319776791e-09	6.3138773714e-09
0.00061	5.0202500327e-03	8.7097759416e-09	5.7724629680e-09
0.00062	5.0202500322e-03	8.6881534434e-09	5.2427540299e-09
0.00063	5.0202500317e-03	8.6671119008e-09	4.7244097633e-09
0.00064	5.0202500312e-03	8.6466673869e-09	4.2170877121e-09
0.00065	5.0202500307e-03	8.6268422681e-09	3.7204417298e-09
0.00066	5.0202500303e-03	8.6076058673e-09	3.2341528410e-09
0.00067	5.0202500298e-03	8.5888999912e-09	2.7579371923e-09
0.00068	5.0202500294e-03	8.5707093931e-09	2.2914996482e-09
0.00069	5.0202500289e-03	8.5530167949e-09	1.8345526929e-09
0.0007	5.0202500285e-03	8.5358176599e-09	1.3868091944e-09
0.00071	5.0202500281e-03	8.5190961918e-09	9.4799991172e-10
0.00072	5.0202500277e-03	8.5028431797e-09	5.1786953286e-10
0.00073	5.0202500274e-03	8.4870501231e-09	9.6183558443e-11
0.00074	5.0202500270e-03	8.4716810374e-09	-3.1728989789e-10
0.00075	5.0202500266e-03	8.4566877628e-09	-7.2276075363e-10
0.00076	5.0202500263e-03	8.4420417139e-09	-1.1204383613e-09
0.00077	5.0202500259e-03	8.4277451474e-09	-1.5105507706e-09
0.00078	5.0202500256e-03	8.4137733593e-09	-1.8933485549e-09
0.00079	5.0202500253e-03	8.4001087400e-09	-2.2690435996e-09
0.0008	5.0202500250e-03	8.3867326101e-09	-2.6378069410e-09
0.00081	5.0202500247e-03	8.3736297840e-09	-2.9997721179e-09
0.00082	5.0202500244e-03	8.3607618113e-09	-3.3551425946e-09
0.00083	5.0202500241e-03	8.3481237975e-09	-3.7040850537e-09
0.00084	5.0202500238e-03	8.3357318067e-09	-4.0467338053e-09
0.00085	5.0202500235e-03	8.3235866178e-09	-4.3832260883e-09
0.00086	5.0202500232e-03	8.3116273502e-09	-4.7137852551e-09
0.00087	5.0202500230e-03	8.2998385468e-09	-5.0385345593e-09
0.00088	5.0202500227e-03	8.2882378582e-09	-5.3575729821e-09
0.00089	5.0202500224e-03	8.2768272731e-09	-5.6710096040e-09
0.0009	5.0202500222e-03	8.2655901363e-09	-5.9789927816e-09
0.00091	5.0202500219e-03	8.2545242037e-09	-6.2816429103e-09
0.00092	5.0202500217e-03	8.2435932379e-09	-6.5790954769e-09
0.00093	5.0202500215e-03	8.2327581726e-09	-6.8714259397e-09
0.00094	5.0202500212e-03	8.2220120941e-09	-7.1588047128e-09
0.00095	5.0202500210e-03	8.2113535940e-09	-7.4413500080e-09
0.00096	5.0202500208e-03	8.2007250354e-09	-7.7191794541e-09
0.00097	5.0202500206e-03	8.1901131346e-09	-7.9923678677e-09
0.00098	5.0202500204e-03	8.1795022533e-09	-8.2610080391e-09
0.00099	5.0202500202e-03	8.1689419721e-09	-8.5251741317e-09
0.001	5.0202500200e-03	8.1584544328e-09	-8.7849466199e-09
0.00101	5.0202500198e-03	8.1480781339e-09	-9.0403924280e-09
0.00102	5.0202500196e-03	8.1378205819e-09	-9.2916451871e-09
0.00103	5.0202500194e-03	8.1277049490e-09	-9.5387867376e-09
0.00104	5.0202500192e-03	8.1177635051e-09	-9.7819150217e-09
0.00105	5.0202500190e-03	8.1080017893e-09	-1.0021101701e-08
0.00106	5.0202500188e-03	8.0983774253e-09	-1.0256446022e-08
0.00107	5.0202500187e-03	8.0888750754e-09	-1.0488037123e-08
0.00108	5.0202500185e-03	8.0794917126e-09	-1.0715967274e-08
0.00109	5.0202500183e-03	8.0701970392e-09	-1.0940315758e-08
0.0011	5.0202500182e-03	8.0609916444e-09	-1.1161164057e-08
0.00111	5.0202500180e-03	8.0518602597e-09	-1.1378577900e-08
0.00112	5.0202500178e-03	8.0428021775e-09	-1.1592617090e-08
0.00113	5.0202500177e-03	8.0338123430e-09	-1.1803339861e-08
0.00114	5.0202500175e-03	8.0248797722e-09	-1.2010801556e-08
0.00115	5.0202500174e-03	8.0159953148e-09	-1.2215061259e-08
0.00116	5.0202500172e-03	8.0071561071e-09	-1.2416176755e-08
0.00117	5.0202500171e-03	7.9983657748e-09	-1.2614205010e-08
0.00118	5.0202500169e-03	7.9896230722e-09	-1.2809190187e-08
0.00119	5.0202500168e-03	7.9809246901e-09	-1.3001193480e-08
0.0012	5.0202500166e-03	7.9722747747e-09	-1.3190264707e-08
0.00121	5.0202500165e-03	7.9636742541e-09	-1.3376468449e-08
0.00122	5.0202500164e-03	7.9551214746e-09	-1.3559857135e-08
0.00123	5.0202500162e-03	7.9466152740e-09	-1.3740491285e-08
0.00124	5.0202500161e-03	7.9381535457e-09	-1.3918417812e-08
0.00125	5.0202500160e-03	7.9297341774e-09	-1.4093695002e-08
0.00126	5.0202500159e-03	7.9213589579e-09	-1.4266367363e-08
0.00127	5.0202500157e-03	7.9130258201e-09	-1.4436490686e-08
0.00128	5.0202500156e-03	7.9047329687e-09	-1.4604106704e-08
0.00129	5.0202500155e-03	7.8964800214e-09	-1.4769269558e-08
0.0013	5.0202500154e-03	7.8882669934e-09	-1.4932020729e-08
0.00131	5.0202500152e-03	7.8800915047e-09	-1.5092412141e-08
0.00132	5.0202500151e-03	7.8719507369e-09	-1.5250476658e-08
0.00133	5.0202500150e-03	7.8638439923e-09	-1.5406261248e-08
0.00134	5.0202500149e-03	7.8557725787e-09	-1.5559797168e-08
0.00135	5.0202500148e-03	7.8477355017e-09	-1.5711131707e-08
0.00136	5.0202500147e-03	7.8397325046e-09	-1.5860296296e-08
0.00137	5.0202500146e-03	7.8317632262e-09	-1.6007338934e-08
0.00138	5.0202500145e-03	7.8238291783e-09	-1.6152288995e-08
0.00139	5.0202500144e-03	7.8159312562e-09	-1.6295195776e-08
0.0014	5.0202500143e-03	7.8080693475e-09	-1.6436087924e-08
0.00141	5.0202500142e-03	7.8002405325e-09	-1.6575011043e-08
0.00142	5.0202500141e-03	7.7924428130e-09	-1.6711990659e-08
0.00143	5.0202500140e-03	7.7846727460e-09	-1.6847071108e-08
0.00144	5.0202500139e-03	7.7769284721e-09	-1.6980277542e-08
0.00145	5.0202500138e-03	7.7692060451e-09	-1.7111655641e-08
0.00146	5.0202500137e-03	7.7615029577e-09	-1.7241230556e-08
0.00147	5.0202500136e-03	7.7538148136e-09	-1.7369043683e-08
0.00148	5.0202500135e-03	7.7461395980e-09	-1.7495117998e-08
0.00149	5.0202500134e-03	7.7384741602e-09	-1.7619493960e-08
0.0015	5.0202500133e-03	7.7308192167e-09	-1.7742192551e-08
0.00151	5.0202500132e-03	7.7231689482e-09	-1.7863249890e-08
0.00152	5.0202500131e-03	7.7155198962e-09	-1.7982683879e-08
0.00153	5.0202500131e-03	7.7078654194e-09	-1.8100529087e-08
0.00154	5.0202500130e-03	7.7002038770e-09	-1.8216804385e-08
0.00155	5.0202500129e-03	7.6925322858e-09	-1.8331545924e-08
0.00156	5.0202500128e-03	7.6848474670e-09	-1.8444770804e-08
0.00157	5.0202500127e-03	7.6771457151e-09	-1.8556514054e-08
0.00158	5.0202500126e-03	7.6694247301e-09	-1.8666791795e-08
0.00159	5.0202500126e-03	7.6616805655e-09	-1.8775636019e-08
0.0016	5.0202500125e-03	7.6539110417e-09	-1.8883062508e-08
0.00161	5.0202500124e-03	7.6461098038e-09	-1.8989103442e-08
0.00162	5.0202500123e-03	7.6382731820e-09	-1.9093772802e-08
0.00163	5.0202500123e-03	7.6303971155e-09	-1.9197099281e-08
0.00164	5.0202500122e-03	7.6224804528e-09	-1.9299095903e-08
0.00165	5.0202500121e-03	7.6145196261e-09	-1.9399786838e-08
0.00166	5.0202500120e-03	7.6065140319e-09	-1.9499182949e-08
0.00167	5.0202500120e-03	7.5984616304e-09	-1.9597307957e-08
0.00168	5.0202500119e-03	7.5903622473e-09	-1.9694172791e-08
0.00169	5.0202500118e-03	7.5822143045e-09	-1.9789800235e-08
0.0017	5.0202500117e-03	7.5740183332e-09	-1.9884199053e-08
0.00171	5.0202500117e-03	7.5657734744e-09	-1.9977391258e-08
0.00172	5.0202500116e-03	7.5574800548e-09	-2.0069386315e-08
0.00173	5.0202500115e-03	7.5491365919e-09	-2.0160204451e-08
0.00174	5.0202500115e-03	7.5407425108e-09	-2.0249853898e-08
0.00175	5.0202500114e-03	7.5322963602e-09	-2.0338355286e-08
0.00176	5.0202500113e-03	7.5237986371e-09	-2.0425716907e-08
0.00177	5.0202500113e-03	7.5152485445e-09	-2.0511960252e-08
0.00178	5.0202500112e-03	7.5066470015e-09	-2.0597092323e-08
0.00179	5.0202500112e-03	7.4979915928e-09	-2.0681130915e-08
0.0018	5.0202500111e-03	7.4892810108e-09	-2.0764081011e-08
0.00181	5.0202500110e-03	7.4805129906e-09	-2.0845963117e-08
0.00182	5.0202500110e-03	7.4716845883e-09	-2.0926784077e-08
0.00183	5.0202500109e-03	7.4627961964e-09	-2.1006561961e-08
0.00184	5.0202500109e-03	7.4538560949e-09	-2.1085305339e-08
0.00185	5.0202500108e-03	7.4448637899e-09	-2.1163031135e-08
0.00186	5.0202500107e-03	7.4358192515e-09	-2.1239746699e-08
0.00187	5.0202500107e-03	7.4267214747e-09	-2.1315470401e-08
0.00188	5.0202500106e-03	7.4175714616e-09	-2.1390210664e-08
0.00189	5.0202500106e-03	7.4083686181e-09	-2.1463985929e-08
0.0019	5.0202500105e-03	7.3991138995e-09	-2.1536802074e-08
0.00191	5.0202500105e-03	7.3898077525e-09	-2.1608675992e-08
0.00192	5.0202500104e-03	7.3804507327e-09	-2.1679613646e-08
0.00193	5.0202500103e-03	7.3710422719e-09	-2.1749630943e-08
0.00194	5.0202500103e-03	7.3615828787e-09	-2.1818733958e-08
0.00195	5.0202500102e-03	7.3520734637e-09	-2.1886939416e-08
0.00196	5.0202500102e-03	7.3425162377e-09	-2.1954253688e-08
0.00197	5.0202500101e-03	7.3329129517e-09	-2.2020690739e-08
0.00198	5.0202500101e-03	7.3232656539e-09	-2.2086257237e-08
0.00199	5.0202500100e-03	7.3135764139e-09	-2.2150966813e-08
0.002	5.0202500100e-03	7.3038470174e-09	-2.2214825679e-08
0.00201	5.0202500099e-03	7.2940789982e-09	-2.2277847601e-08
0.00202	5.0202500099e-03	7.2842737416e-09	-2.2340039434e-08
0.00203	5.0202500098e-03	7.2744326889e-09	-2.2401416055e-08
0.00204	5.0202500098e-03	7.2645619143e-09	-2.2461982510e-08
0.00205	5.0202500097e-03	7.2546637909e-09	-2.2521755338e-08
0.00206	5.0202500097e-03	7.2447438007e-09	-2.2580737238e-08
0.00207	5.0202500096e-03	7.2348009738e-09	-2.2638946933e-08
0.00208	5.0202500096e-03	7.2248362274e-09	-2.2696391062e-08
0.00209	5.0202500096e-03	7.2148499478e-09	-2.2753083398e-08
0.0021	5.0202500095e-03	7.2048425102e-09	-2.2809028664e-08
0.00211	5.0202500095e-03	7.1948127420e-09	-2.2864240880e-08
0.00212	5.0202500094e-03	7.1847629452e-09	-2.2918729459e-08
0.00213	5.0202500094e-03	7.1746940062e-09	-2.2972509883e-08
0.00214	5.0202500093e-03	7.1646080650e-09	-2.3025585064e-08
0.00215	5.0202500093e-03	7.1545057424e-09	-2.3077968003e-08
0.00216	5.0202500092e-03	7.1443875944e-09	-2.3129664466e-08
0.00217	5.0202500092e-03	7.1342533229e-09	-2.3180687238e-08
0.00218	5.0202500092e-03	7.1241029131e-09	-2.3231041676e-08
0.00219	5.0202500091e-03	7.1139364077e-09	-2.3280740733e-08
0.0022	5.0202500091e-03	7.1037534992e-09	-2.3329789732e-08
0.00221	5.0202500090e-03	7.0935537796e-09	-2.3378201618e-08
0.00222	5.0202500090e-03	7.0833369860e-09	-2.3425981287e-08
0.00223	5.0202500090e-03	7.0731027573e-09	-2.3473141825e-08
0.00224	5.0202500089e-03	7.0628511604e-09	-2.3519687892e-08
0.00225	5.0202500089e-03	7.0525818468e-09	-2.3565631103e-08
0.00226	5.0202500088e-03	7.0422948735e-09	-2.3610975283e-08
0.00227	5.0202500088e-03	7.0319899552e-09	-2.3655731536e-08
0.00228	5.0202500088e-03	7.0216678001e-09	-2.3699903371e-08
0.00229	5.0202500087e-03	7.0113274160e-09	-2.3743501308e-08
0.0023	5.0202500087e-03	7.0009691939e-09	-2.3786528848e-08
0.00231	5.0202500086e-03	6.9905920906e-09	-2.3828995079e-08
0.00232	5.0202500086e-03	6.9801966945e-09	-2.3870902897e-08
0.00233	5.0202500086e-03	6.9697829230e-09	-2.3912261481e-08
0.00234	5.0202500085e-03	6.9593521421e-09	-2.3953072952e-08
0.00235	5.0202500085e-03	6.9489045852e-09	-2.3993345981e-08
0.00236	5.0202500085e-03	6.9384410965e-09	-2.4033083917e-08
0.00237	5.0202500084e-03	6.9279619604e-09	-2.4072295380e-08
0.00238	5.0202500084e-03	6.9174682429e-09	-2.4110983158e-08
0.00239	5.0202500084e-03	6.9069603899e-09	-2.4149155968e-08
0.0024	5.0202500083e-03	6.8964374609e-09	-2.4186817084e-08
0.00241	5.0202500083e-03	6.8858978476e-09	-2.4223973975e-08
0.00242	5.0202500083e-03	6.8753410360e-09	-2.4260629819e-08
0.00243	5.0202500082e-03	6.8647642160e-09	-2.4296790770e-08
0.00244	5.0202500082e-03	6.8541686770e-09	-2.4332459515e-08
0.00245	5.0202500082e-03	6.8435539080e-09	-2.4367643017e-08
0.00246	5.0202500081e-03	6.8329222720e-09	-2.4402344526e-08
0.00247	5.0202500081e-03	6.8222710312e-09	-2.4436573096e-08
0.00248	5.0202500081e-03	6.8116024795e-09	-2.4470332492e-08
0.00249	5.0202500080e-03	6.8009152768e-09	-2.4503629063e-08
0.0025	5.0202500080e-03	6.7902102602e-09	-2.4536466541e-08
0.00251	5.0202500080e-03	6.7794860739e-09	-2.4568851624e-08
0.00252	5.0202500079e-03	6.7687444574e-09	-2.4600788543e-08
0.00253	5.0202500079e-03	6.7579842022e-09	-2.4632285119e-08
0.00254	5.0202500079e-03	6.7472048992e-09	-2.4663344789e-08
0.00255	5.0202500078e-03	6.7364044009e-09	-2.4693974565e-08
0.00256	5.0202500078e-03	6.7255825978e-09	-2.4724176520e-08
0.00257	5.0202500078e-03	6.7147391944e-09	-2.4753957438e-08
0.00258	5.0202500077e-03	6.7038747952e-09	-2.4783319157e-08
0.00259	5.0202500077e-03	6.6929902961e-09	-2.4812268712e-08
0.0026	5.0202500077e-03	6.6820855114e-09	-2.4840808055e-08
0.00261	5.0202500077e-03	6.6711611091e-09	-2.4868944627e-08
0.00262	5.0202500076e-03	6.6602182349e-09	-2.4896679375e-08
0.00263	5.0202500076e-03	6.6492571004e-09	-2.4924021355e-08
0.00264	5.0202500076e-03	6.6382773680e-09	-2.4950970346e-08
0.00265	5.0202500075e-03	6.6272788180e-09	-2.4977532730e-08
0.00266	5.0202500075e-03	6.6162613525e-09	-2.5003709811e-08
0.00267	5.0202500075e-03	6.6052247529e-09	-2.5029508703e-08
0.00268	5.0202500075e-03	6.5941688696e-09	-2.5054929754e-08
0.00269	5.0202500074e-03	6.5830927856e-09	-2.5079981050e-08
0.0027	5.0202500074e-03	6.5719962612e-09	-2.5104662297e-08
0.00271	5.0202500074e-03	6.5608789591e-09	-2.5128980668e-08
0.00272	5.0202500073e-03	6.5497411865e-09	-2.5152936024e-08
0.00273	5.0202500073e-03	6.5385833465e-09	-2.5176534062e-08
0.00274	5.0202500073e-03	6.5274026895e-09	-2.5199777619e-08
0.00275	5.0202500073e-03	6.5161991944e-09	-2.5222672073e-08
0.00276	5.0202500072e-03	6.5049734464e-09	-2.5245217125e-08
0.00277	5.0202500072e-03	6.4937248132e-09	-2.5267419543e-08
0.00278	5.0202500072e-03	6.4824536424e-09	-2.5289280857e-08
0.00279	5.0202500072e-03	6.4711603335e-09	-2.5310807803e-08
0.0028	5.0202500071e-03	6.4598440692e-09	-2.5332001071e-08
0.00281	5.0202500071e-03	6.4485049114e-09	-2.5352865923e-08
0.00282	5.0202500071e-03	6.4371428011e-09	-2.5373402439e-08
0.00283	5.0202500071e-03	6.4257574093e-09	-2.5393614973e-08
0.00284	5.0202500070e-03	6.4143485075e-09	-2.5413504241e-08
0.00285	5.0202500070e-03	6.4029165188e-09	-2.5433075823e-08
0.00286	5.0202500070e-03	6.3914609075e-09	-2.5452330492e-08
0.00287	5.0202500070e-03	6.3799812672e-09	-2.5471272787e-08
0.00288	5.0202500069e-03	6.3684764698e-09	-2.5489902664e-08
0.00289	5.0202500069e-03	6.3569463299e-09	-2.5508224593e-08
0.0029	5.0202500069e-03	6.3453913872e-09	-2.5526239454e-08
0.00291	5.0202500069e-03	6.3338127623e-09	-2.5543952910e-08
0.00292	5.0202500068e-03	6.3222111346e-09	-2.5561365940e-08
0.00293	5.0202500068e-03	6.3105857967e-09	-2.5578483032e-08
0.00294	5.0202500068e-03	6.2989354348e-09	-2.5595305399e-08
0.00295	5.0202500068e-03	6.2872580712e-09	-2.5611837041e-08
0.00296	5.0202500067e-03	6.2755530547e-09	-2.5628078006e-08
0.00297	5.0202500067e-03	6.2638205827e-09	-2.5644032655e-08
0.00298	5.0202500067e-03	6.2520612521e-09	-2.5659702932e-08
0.00299	5.0202500067e-03	6.2402770865e-09	-2.5675093910e-08
0.003	5.0202500067e-03	6.2284689592e-09	-2.5690207207e-08
0.00301	5.0202500066e-03	6.2166354819e-09	-2.5705046263e-08
0.00302	5.0202500066e-03	6.2047759808e-09	-2.5719612780e-08
0.00303	5.0202500066e-03	6.1928893714e-09	-2.5733910519e-08
0.00304	5.0202500066e-03	6.1809758486e-09	-2.5747942443e-08
0.00305	5.0202500065e-03	6.1690351867e-09	-2.5761712175e-08
0.00306	5.0202500065e-03	6.1570659855e-09	-2.5775220056e-08
0.00307	5.0202500065e-03	6.1450673965e-09	-2.5788469067e-08
0.00308	5.0202500065e-03	6.1330388661e-09	-2.5801459116e-08
0.00309	5.0202500065e-03	6.1209799677e-09	-2.5814193738e-08
0.0031	5.0202500064e-03	6.1088891671e-09	-2.5826674667e-08
0.00311	5.0202500064e-03	6.0967658811e-09	-2.5838905005e-08
0.00312	5.0202500064e-03	6.0846088120e-09	-2.5850884435e-08
0.00313	5.0202500064e-03	6.0724177634e-09	-2.5862616039e-08
0.00314	5.0202500064e-03	6.0601932984e-09	-2.5874100282e-08
0.00315	5.0202500063e-03	6.0479341065e-09	-2.5885341601e-08
0.00316	5.0202500063e-03	6.0356395841e-09	-2.5896340914e-08
0.00317	5.0202500063e-03	6.0233119173e-09	-2.5907103744e-08
0.00318	5.0202500063e-03	6.0109507902e-09	-2.5917629912e-08
0.00319	5.0202500063e-03	5.9985580337e-09	-2.5927921955e-08
0.0032	5.0202500062e-03	5.9861339216e-09	-2.5937978912e-08
0.00321	5.0202500062e-03	5.9736790422e-09	-2.5947803685e-08
0.00322	5.0202500062e-03	5.9611935205e-09	-2.5957394718e-08
0.00323	5.0202500062e-03	5.9486791168e-09	-2.5966754677e-08
0.00324	5.0202500062e-03	5.9361350345e-09	-2.5975882933e-08
0.00325	5.0202500061e-03	5.9235620328e-09	-2.5984784058e-08
0.00326	5.0202500061e-03	5.9109598851e-09	-2.5993454749e-08
0.00327	5.0202500061e-03	5.8983288494e-09	-2.6001894196e-08
0.00328	5.0202500061e-03	5.8856681491e-09	-2.6010102127e-08
0.00329	5.0202500061e-03	5.8729777274e-09	-2.6018081510e-08
0.0033	5.0202500061e-03	5.8602574825e-09	-2.6025832575e-08
0.00331	5.0202500060e-03	5.8475088572e-09	-2.6033358834e-08
0.00332	5.0202500060e-03	5.8347321936e-09	-2.6040661086e-08
0.00333	5.0202500060e-03	5.8219287095e-09	-2.6047742077e-08
0.00334	5.0202500060e-03	5.8090993806e-09	-2.6054604252e-08
0.00335	5.0202500060e-03	5.7962461651e-09	-2.6061250609e-08
0.00336	5.0202500059e-03	5.7833707518e-09	-2.6067681554e-08
0.00337	5.0202500059e-03	5.7704746946e-09	-2.6073898937e-08
0.00338	5.0202500059e-03	5.7575601795e-09	-2.6079903653e-08
0.00339	5.0202500059e-03	5.7446280690e-09	-2.6085696044e-08
0.0034	5.0202500059e-03	5.7316798367e-09	-2.6091276820e-08
0.00341	5.0202500059e-03	5.7187149408e-09	-2.6096645417e-08
0.00342	5.0202500058e-03	5.7057359649e-09	-2.6101803490e-08
0.00343	5.0202500058e-03	5.6927423413e-09	-2.6106750996e-08
0.00344	5.0202500058e-03	5.6797354336e-09	-2.6111490143e-08
0.00345	5.0202500058e-03	5.6667134452e-09	-2.6116021097e-08
0.00346	5.0202500058e-03	5.6536756639e-09	-2.6120345095e-08
0.00347	5.0202500058e-03	5.6406226636e-09	-2.6124461639e-08
0.00348	5.0202500057e-03	5.6275556647e-09	-2.6128370641e-08
0.00349	5.0202500057e-03	5.6144739710e-09	-2.6132072820e-08
0.0035	5.0202500057e-03	5.6013781516e-09	-2.6135569203e-08
0.00351	5.0202500057e-03	5.5882681603e-09	-2.6138861990e-08
0.00352	5.0202500057e-03	5.5751458621e-09	-2.6141952908e-08
0.00353	5.0202500057e-03	5.5620097135e-09	-2.6144845041e-08
0.00354	5.0202500056e-03	5.5488603295e-09	-2.6147537930e-08
0.00355	5.0202500056e-03	5.5356969553e-09	-2.6150033073e-08
0.00356	5.0202500056e-03	5.5225192715e-09	-2.6152330246e-08
0.00357	5.0202500056e-03	5.5093278771e-09	-2.6154430821e-08
0.00358	5.0202500056e-03	5.4961235675e-09	-2.6156336631e-08
0.00359	5.0202500056e-03	5.4829051909e-09	-2.6158049034e-08
0.0036	5.0202500055e-03	5.4696739149e-09	-2.6159568547e-08
0.00361	5.0202500055e-03	5.4564290776e-09	-2.6160896505e-08
0.00362	5.0202500055e-03	5.4431708843e-09	-2.6162033469e-08
0.00363	5.0202500055e-03	5.4298997355e-09	-2.6162981805e-08
0.00364	5.0202500055e-03	5.4166162969e-09	-2.6163742540e-08
0.00365	5.0202500055e-03	5.4033198606e-09	-2.6164317650e-08
0.00366	5.0202500055e-03	5.3900102388e-09	-2.6164708307e-08
0.00367	5.0202500054e-03	5.3766869720e-09	-2.6164917448e-08
0.00368	5.0202500054e-03	5.3633499939e-09	-2.6164946010e-08
0.00369	5.0202500054e-03	5.3500000609e-09	-2.6164795287e-08
0.0037	5.0202500054e-03	5.3366383247e-09	-2.6164467246e-08
0.00371	5.0202500054e-03	5.3232642435e-09	-2.6163962737e-08
0.00372	5.0202500054e-03	5.3098782400e-09	-2.6163283907e-08
0.00373	5.0202500054e-03	5.2964806202e-09	-2.6162433426e-08
0.00374	5.0202500053e-03	5.2830703180e-09	-2.6161411305e-08
0.00375	5.0202500053e-03	5.2696464556e-09	-2.6160220170e-08
0.00376	5.0202500053e-03	5.2562088466e-09	-2.6158860974e-08
0.00377	5.0202500053e-03	5.2427551112e-09	-2.6157335864e-08
0.00378	5.0202500053e-03	5.2292828181e-09	-2.6155645871e-08
0.00379	5.0202500053e-03	5.2157918691e-09	-2.6153792084e-08
0.0038	5.0202500053e-03	5.2022833592e-09	-2.6151775122e-08
0.00381	5.0202500052e-03	5.1887567244e-09	-2.6149596496e-08
0.00382	5.0202500052e-03	5.1752123565e-09	-2.6147256979e-08
0.00383	5.0202500052e-03	5.1616512435e-09	-2.6144759270e-08
0.00384	5.0202500052e-03	5.1480749526e-09	-2.6142106248e-08
0.00385	5.0202500052e-03	5.1344838749e-09	-2.6139297867e-08
0.00386	5.0202500052e-03	5.1208781895e-09	-2.6136332580e-08
0.00387	5.0202500052e-03	5.1072561719e-09	-2.6133210631e-08
0.00388	5.0202500051e-03	5.0936184471e-09	-2.6129932364e-08
0.00389	5.0202500051e-03	5.0799652585e-09	-2.6126499082e-08
0.0039	5.0202500051e-03	5.0662964785e-09	-2.6122911544e-08
0.00391	5.0202500051e-03	5.0526128244e-09	-2.6119170764e-08
0.00392	5.0202500051e-03	5.0389139847e-09	-2.6115278027e-08
0.00393	5.0202500051e-03	5.0251998369e-09	-2.6111236674e-08
0.00394	5.0202500051e-03	5.0114699323e-09	-2.6107047613e-08
0.00395	5.0202500051e-03	4.9977259566e-09	-2.6102712445e-08
0.00396	5.0202500050e-03	4.9839673658e-09	-2.6098233367e-08
0.00397	5.0202500050e-03	4.9701940481e-09	-2.6093611740e-08
0.00398	5.0202500050e-03	4.9564055133e-09	-2.6088848694e-08
0.00399	5.0202500050e-03	4.9426023316e-09	-2.6083945985e-08
0.004	5.0202500050e-03	4.9287853809e-09	-2.6078903472e-08
0.00401	5.0202500050e-03	4.9149554218e-09	-2.6073723214e-08
0.00402	5.0202500050e-03	4.9011119380e-09	-2.6068406458e-08
0.00403	5.0202500050e-03	4.8872536607e-09	-2.6062954649e-08
0.00404	5.0202500049e-03	4.8733800392e-09	-2.6057369455e-08
0.00405	5.0202500049e-03	4.8594915187e-09	-2.6051652886e-08
0.00406	5.0202500049e-03	4.8455891917e-09	-2.6045806490e-08
0.00407	5.0202500049e-03	4.8316734288e-09	-2.6039830666e-08
0.00408	5.0202500049e-03	4.8177435954e-09	-2.6033726249e-08
0.00409	5.0202500049e-03	4.8038000795e-09	-2.6027494224e-08
0.0041	5.0202500049e-03	4.7898430572e-09	-2.6021134258e-08
0.00411	5.0202500049e-03	4.7758724533e-09	-2.6014648682e-08
0.00412	5.0202500048e-03	4.7618865209e-09	-2.6008039334e-08
0.00413	5.0202500048e-03	4.7478844735e-09	-2.6001306243e-08
0.00414	5.0202500048e-03	4.7338664767e-09	-2.5994450464e-08
0.00415	5.0202500048e-03	4.7198309788e-09	-2.5987472729e-08
0.00416	5.0202500048e-03	4.7057779042e-09	-2.5980374366e-08
0.00417	5.0202500048e-03	4.6917077167e-09	-2.5973155850e-08
0.00418	5.0202500048e-03	4.6776214796e-09	-2.5965818004e-08
0.00419	5.0202500048e-03	4.6635203661e-09	-2.5958361679e-08
0.0042	5.0202500048e-03	4.6494067586e-09	-2.5950789541e-08
0.00421	5.0202500047e-03	4.6352815742e-09	-2.5943102551e-08
0.00422	5.0202500047e-03	4.6211443714e-09	-2.5935300913e-08
0.00423	5.0202500047e-03	4.6069945938e-09	-2.5927384768e-08
0.00424	5.0202500047e-03	4.5928340859e-09	-2.5919357278e-08
0.00425	5.0202500047e-03	4.5786641667e-09	-2.5911220492e-08
0.00426	5.0202500047e-03	4.5644841676e-09	-2.5902975443e-08
0.00427	5.0202500047e-03	4.5502932831e-09	-2.5894623680e-08
0.00428	5.0202500047e-03	4.5360919470e-09	-2.5886167065e-08
0.00429	5.0202500047e-03	4.5218783874e-09	-2.5877605585e-08
0.0043	5.0202500046e-03	4.5076516505e-09	-2.5868939636e-08
0.00431	5.0202500046e-03	4.4934102852e-09	-2.5860169605e-08
0.00432	5.0202500046e-03	4.4791560693e-09	-2.5851297489e-08
0.00433	5.0202500046e-03	4.4648920159e-09	-2.5842323476e-08
0.00434	5.0202500046e-03	4.4506198664e-09	-2.5833250066e-08
0.00435	5.0202500046e-03	4.4363392871e-09	-2.5824077904e-08
0.00436	5.0202500046e-03	4.4220488460e-09	-2.5814807711e-08
0.00437	5.0202500046e-03	4.4077478629e-09	-2.5805440394e-08
0.00438	5.0202500046e-03	4.3934349413e-09	-2.5795976374e-08
0.00439	5.0202500045e-03	4.3791100080e-09	-2.5786416334e-08
0.0044	5.0202500045e-03	4.3647748481e-09	-2.5776761240e-08
0.00441	5.0202500045e-03	4.3504299446e-09	-2.5767012865e-08
0.00442	5.0202500045e-03	4.3360762370e-09	-2.5757173178e-08
0.00443	5.0202500045e-03	4.3217139048e-09	-2.5747243129e-08
0.00444	5.0202500045e-03	4.3073425565e-09	-2.5737223308e-08
0.00445	5.0202500045e-03	4.2929614432e-09	-2.5727113255e-08
0.00446	5.0202500045e-03	4.2785702720e-09	-2.5716913592e-08
0.00447	5.0202500045e-03	4.2641695769e-09	-2.5706625251e-08
0.00448	5.0202500045e-03	4.2497589933e-09	-2.5696248384e-08
0.00449	5.0202500044e-03	4.2353386036e-09	-2.5685782448e-08
0.0045	5.0202500044e-03	4.2209088865e-09	-2.5675227983e-08
0.00451	5.0202500044e-03	4.2064707653e-09	-2.5664586121e-08
0.00452	5.0202500044e-03	4.1920241363e-09	-2.5653858567e-08
0.00453	5.0202500044e-03	4.1775679674e-09	-2.5643046601e-08
0.00454	5.0202500044e-03	4.1631018188e-09	-2.5632151053e-08
0.00455	5.0202500044e-03	4.1486258475e-09	-2.5621173258e-08
0.00456	5.0202500044e-03	4.1341399844e-09	-2.5610113953e-08
0.00457	5.0202500044e-03	4.1196440993e-09	-2.5598973163e-08
0.00458	5.0202500044e-03	4.1051383228e-09	-2.5587751627e-08
0.00459	5.0202500044e-03	4.0906227118e-09	-2.5576450113e-08
0.0046	5.0202500043e-03	4.0760972443e-09	-2.5565069167e-08
0.00461	5.0202500043e-03	4.0615620811e-09	-2.5553608749e-08
0.00462	5.0202500043e-03	4.0470169447e-09	-2.5542069616e-08
0.00463	5.0202500043e-03	4.0324616951e-09	-2.5530452937e-08
0.00464	5.0202500043e-03	4.0178961734e-09	-2.5518760002e-08
0.00465	5.0202500043e-03	4.0033205457e-09	-2.5506991568e-08
0.00466	5.0202500043e-03	3.9887344912e-09	-2.5495148465e-08
0.00467	5.0202500043e-03	3.9741375738e-09	-2.5483231242e-08
0.00468	5.0202500043e-03	3.9595302886e-09	-2.5471240231e-08
0.00469	5.0202500043e-03	3.9449129889e-09	-2.5459175653e-08
0.0047	5.0202500042e-03	3.9302857355e-09	-2.5447038382e-08
0.00471	5.0202500042e-03	3.9156481846e-09	-2.5434829203e-08
0.00472	5.0202500042e-03	3.9010008749e-09	-2.5422548151e-08
0.00473	5.0202500042e-03	3.8863443039e-09	-2.5410195223e-08
0.00474	5.0202500042e-03	3.8716790006e-09	-2.5397770761e-08
0.00475	5.0202500042e-03	3.8570056867e-09	-2.5385275640e-08
0.00476	5.0202500042e-03	3.8423250658e-09	-2.5372710750e-08
0.00477	5.0202500042e-03	3.8276376018e-09	-2.5360076521e-08
0.00478	5.0202500042e-03	3.8129434856e-09	-2.5347373645e-08
0.00479	5.0202500042e-03	3.7982429525e-09	-2.5334602604e-08
0.0048	5.0202500042e-03	3.7835360730e-09	-2.5321763985e-08
0.00481	5.0202500042e-03	3.7688234929e-09	-2.5308858536e-08
0.00482	5.0202500041e-03	3.7541058633e-09	-2.5295886318e-08
0.00483	5.0202500041e-03	3.7393833633e-09	-2.5282848882e-08
0.00484	5.0202500041e-03	3.7246559180e-09	-2.5269747495e-08
0.00485	5.0202500041e-03	3.7099235068e-09	-2.5256583118e-08
0.00486	5.0202500041e-03	3.6951861476e-09	-2.5243356543e-08
0.00487	5.0202500041e-03	3.6804439857e-09	-2.5230068837e-08
0.00488	5.0202500041e-03	3.6656971688e-09	-2.5216720817e-08
0.00489	5.0202500041e-03	3.6509457184e-09	-2.5203313731e-08
0.0049	5.0202500041e-03	3.6361894085e-09	-2.5189848358e-08
0.00491	5.0202500041e-03	3.6214284985e-09	-2.5176325529e-08
0.00492	5.0202500041e-03	3.6066633159e-09	-2.5162745885e-08
0.00493	5.0202500041e-03	3.5918941230e-09	-2.5149110287e-08
0.00494	5.0202500040e-03	3.5771214488e-09	-2.5135418785e-08
0.00495	5.0202500040e-03	3.5623451071e-09	-2.5121672986e-08
0.00496	5.0202500040e-03	3.5475647403e-09	-2.5107873221e-08
0.00497	5.0202500040e-03	3.5327805455e-09	-2.5094020179e-08
0.00498	5.0202500040e-03	3.5179927829e-09	-2.5080114510e-08
0.00499	5.0202500040e-03	3.5032016883e-09	-2.5066156951e-08
0.005	5.0202500040e-03	3.4884074364e-09	-2.5052148180e-08