# Solver information    
# Time                  	U_solver                	Ux_initial              	Ux_final                	Ux_iters                	Uy_initial              	Uy_final                	Uy_iters                	Uz_initial              	Uz_final                	Uz_iters                	U_converged             	epsilon_solver          	epsilon_initial         	epsilon_final           	epsilon_iters           	epsilon_converged       	k_solver                	k_initial               	k_final                 	k_iters                 	k_converged             	p_solver                	p_initial               	p_final                 	p_iters                 	p_converged             
1e-05                   	smoothSolver	1.0000000000000000e+00	3.7420499999999999e-09	2	0.0000000000000000e+00	0.0000000000000000e+00	0	0.0000000000000000e+00	0.0000000000000000e+00	0	false	smoothSolver	1.1355600000000000e-02	6.9871000000000004e-08	2	true	smoothSolver	1.0000000000000000e+00	6.0320699999999998e-06	2	true	GAMG	1.0000000000000000e+00	6.5212599999999996e-02	10	true
2e-05                   	smoothSolver	8.8547100000000001e-01	7.5741900000000004e-06	2	3.3020899999999997e-01	2.6286499999999998e-06	2	3.3021600000000001e-01	2.6430299999999999e-06	2	false	smoothSolver	1.0183599999999999e-02	7.9708199999999999e-08	2	true	smoothSolver	3.0342700000000000e-01	2.3481399999999998e-06	2	true	GAMG	2.2872000000000000e-02	2.2440200000000002e-03	3	true
3e-05                   	smoothSolver	6.2776200000000004e-02	6.0407900000000002e-07	2	4.9964599999999998e-02	4.1422299999999999e-07	2	4.9935599999999997e-02	4.1484999999999999e-07	2	false	smoothSolver	9.6420900000000007e-03	7.5310299999999994e-08	2	true	smoothSolver	1.7733599999999999e-01	1.3702400000000001e-06	2	true	GAMG	2.9757400000000001e-01	2.1597100000000001e-02	1	true
4e-05                   	smoothSolver	2.9461999999999999e-02	2.8120200000000001e-07	2	2.0362000000000002e-02	1.6910200000000000e-07	2	2.0266099999999999e-02	1.6855899999999999e-07	2	false	smoothSolver	9.2298599999999995e-03	7.2182099999999996e-08	2	true	smoothSolver	1.2442900000000000e-01	9.6166599999999995e-07	2	true	GAMG	1.4588999999999999e-01	9.3262299999999996e-03	1	true
5e-05                   	smoothSolver	2.0987100000000002e-02	1.9859000000000001e-07	2	1.4056900000000001e-02	1.1786000000000000e-07	2	1.3965200000000001e-02	1.1722400000000000e-07	2	false	smoothSolver	8.8802599999999992e-03	6.9379000000000002e-08	2	true	smoothSolver	9.5429200000000006e-02	7.3653499999999997e-07	2	true	GAMG	9.7371600000000003e-02	5.9858899999999998e-03	1	true
6e-05                   	smoothSolver	1.6633100000000001e-02	1.5661300000000000e-07	2	1.1221000000000000e-02	9.4716199999999997e-08	2	1.1152199999999999e-02	9.4604099999999997e-08	2	false	smoothSolver	8.5704100000000005e-03	6.6757200000000004e-08	2	true	smoothSolver	7.7163099999999998e-02	5.9359099999999998e-07	2	true	GAMG	7.3362399999999994e-02	4.1917300000000003e-03	1	true
7e-05                   	smoothSolver	1.3964200000000000e-02	1.3131100000000000e-07	2	9.6357400000000003e-03	8.1930700000000005e-08	2	9.5752600000000004e-03	8.1831300000000003e-08	2	false	smoothSolver	8.2875199999999996e-03	6.4358000000000000e-08	2	true	smoothSolver	6.4619399999999994e-02	4.9550700000000004e-07	2	true	GAMG	5.9367700000000002e-02	3.2383600000000000e-03	1	true
8e-05                   	smoothSolver	1.2158000000000000e-02	1.1437899999999999e-07	2	8.6247300000000006e-03	7.3710399999999998e-08	2	8.5649799999999998e-03	7.3636499999999999e-08	2	false	smoothSolver	8.0242000000000004e-03	6.2147499999999995e-08	2	true	smoothSolver	5.5479100000000003e-02	4.2399399999999998e-07	2	true	GAMG	5.0330000000000000e-02	2.6553599999999998e-03	1	true
9e-05                   	smoothSolver	1.0856200000000000e-02	1.0221900000000000e-07	2	7.9190000000000007e-03	6.7966599999999994e-08	2	7.8599299999999993e-03	6.7886000000000003e-08	2	false	smoothSolver	7.7771100000000003e-03	6.0004399999999994e-08	2	true	smoothSolver	4.8529500000000003e-02	3.6941799999999998e-07	2	true	GAMG	4.4195499999999999e-02	2.2903099999999998e-03	1	true
0.0001                  	smoothSolver	9.8757700000000007e-03	9.3066499999999995e-08	2	7.3921999999999998e-03	6.3680600000000004e-08	2	7.3362699999999998e-03	6.3591399999999999e-08	2	false	smoothSolver	7.5440300000000002e-03	5.8076999999999998e-08	2	true	smoothSolver	4.3070700000000003e-02	3.2702599999999998e-07	2	true	GAMG	3.9675500000000002e-02	2.0263099999999999e-03	1	true
0.00011                 	smoothSolver	9.1143600000000002e-03	8.6003700000000004e-08	2	6.9832499999999999e-03	6.0342699999999997e-08	2	6.9328300000000001e-03	6.0295699999999996e-08	2	false	smoothSolver	7.3225499999999997e-03	5.6250399999999999e-08	2	true	smoothSolver	3.8670299999999998e-02	2.9274499999999999e-07	2	true	GAMG	3.6239700000000000e-02	1.8302699999999999e-03	1	true
0.00012                 	smoothSolver	8.5083099999999998e-03	8.0376299999999994e-08	2	6.6570900000000001e-03	5.7682300000000003e-08	2	6.6111499999999997e-03	5.7659400000000002e-08	2	false	smoothSolver	7.1113100000000000e-03	5.4432299999999997e-08	2	true	smoothSolver	3.5048200000000002e-02	2.6432900000000001e-07	2	true	GAMG	3.3477899999999998e-02	1.6791800000000000e-03	1	true
0.00013                 	smoothSolver	8.0177600000000005e-03	7.5851600000000001e-08	2	6.3898999999999996e-03	5.5511799999999997e-08	2	6.3486899999999997e-03	5.5490899999999998e-08	2	false	smoothSolver	6.9094700000000000e-03	5.2729799999999999e-08	2	true	smoothSolver	3.2016200000000002e-02	2.4070300000000001e-07	2	true	GAMG	3.1219400000000001e-02	1.5563899999999999e-03	1	true
0.00014                 	smoothSolver	7.6156300000000000e-03	7.2150499999999995e-08	2	6.1672999999999997e-03	5.3701300000000002e-08	2	6.1297699999999997e-03	5.3682700000000002e-08	2	false	smoothSolver	6.7163700000000002e-03	5.1060299999999998e-08	2	true	smoothSolver	2.9441100000000001e-02	2.2044799999999999e-07	2	true	GAMG	2.9352099999999999e-02	1.4563700000000000e-03	1	true
0.00015                 	smoothSolver	7.2819800000000004e-03	6.9066900000000000e-08	2	5.9798700000000000e-03	5.2172900000000001e-08	2	5.9452200000000002e-03	5.2131499999999999e-08	2	false	smoothSolver	6.5315800000000004e-03	4.9469499999999998e-08	2	true	smoothSolver	2.7229000000000000e-02	2.0310000000000001e-07	2	true	GAMG	2.7778799999999999e-02	1.3747600000000000e-03	1	true
0.00016                 	smoothSolver	7.0012700000000004e-03	6.6479199999999994e-08	2	5.8188099999999998e-03	5.0849000000000001e-08	2	5.7865399999999997e-03	5.0793700000000002e-08	2	false	smoothSolver	6.3544400000000003e-03	4.7950799999999999e-08	2	true	smoothSolver	2.5307900000000001e-02	1.8796100000000000e-07	2	true	GAMG	2.6404700000000000e-02	1.3010599999999999e-03	1	true
0.00017                 	smoothSolver	6.7644599999999999e-03	6.4304299999999994e-08	2	5.6785200000000003e-03	4.9670400000000003e-08	2	5.6483899999999997e-03	4.9626200000000001e-08	2	false	smoothSolver	6.1847500000000001e-03	4.6480800000000000e-08	2	true	smoothSolver	2.3624500000000000e-02	1.7476399999999999e-07	2	true	GAMG	2.5192200000000001e-02	1.2385899999999999e-03	1	true
0.00018                 	smoothSolver	6.5647099999999996e-03	6.2450499999999994e-08	2	5.5563000000000001e-03	4.8644299999999998e-08	2	5.5275400000000001e-03	4.8603799999999999e-08	2	false	smoothSolver	6.0221800000000002e-03	4.5053799999999997e-08	2	true	smoothSolver	2.2137199999999999e-02	1.6293099999999999e-07	2	true	GAMG	2.4153299999999999e-02	1.1871399999999999e-03	1	true
0.00019                 	smoothSolver	6.3953300000000003e-03	6.0850000000000006e-08	2	5.4488599999999998e-03	4.7739500000000002e-08	2	5.4210500000000002e-03	4.7699899999999998e-08	2	false	smoothSolver	5.8664199999999998e-03	4.3640599999999998e-08	2	true	smoothSolver	2.0814699999999998e-02	1.5230300000000001e-07	2	true	GAMG	2.3219900000000002e-02	1.1398700000000001e-03	1	true
0.0002                  	smoothSolver	6.2516300000000002e-03	5.9453000000000003e-08	2	5.3538400000000003e-03	4.6934899999999998e-08	2	5.3263299999999998e-03	4.6889999999999998e-08	2	false	smoothSolver	5.7173700000000003e-03	4.2292599999999998e-08	2	true	smoothSolver	1.9631400000000000e-02	1.4297499999999999e-07	2	true	GAMG	2.2406200000000001e-02	1.0967200000000000e-03	1	true
0.00021                 	smoothSolver	6.1300299999999999e-03	5.8223200000000002e-08	2	5.2687500000000000e-03	4.6207099999999997e-08	2	5.2421300000000002e-03	4.6153600000000002e-08	2	false	smoothSolver	5.5742500000000002e-03	4.1038300000000003e-08	2	true	smoothSolver	1.8566300000000001e-02	1.3446900000000001e-07	2	true	GAMG	2.1661699999999999e-02	1.0603300000000000e-03	1	true
0.00022                 	smoothSolver	6.0273200000000001e-03	5.7142700000000001e-08	2	5.1923700000000000e-03	4.5547800000000001e-08	2	5.1664299999999996e-03	4.5480600000000000e-08	2	false	smoothSolver	5.4369199999999996e-03	3.9836600000000000e-08	2	true	smoothSolver	1.7603299999999999e-02	1.2693799999999999e-07	2	true	GAMG	2.1006199999999999e-02	1.0282600000000000e-03	1	true
0.00023                 	smoothSolver	5.9409600000000003e-03	5.6183699999999999e-08	2	5.1233199999999998e-03	4.4944500000000003e-08	2	5.0980100000000000e-03	4.4869299999999999e-08	2	false	smoothSolver	5.3050900000000002e-03	3.8715900000000002e-08	2	true	smoothSolver	1.6728400000000001e-02	1.2002299999999999e-07	2	true	GAMG	2.0396200000000000e-02	9.9871500000000006e-04	1	true
0.00024                 	smoothSolver	5.8673400000000004e-03	5.5322999999999998e-08	2	5.0605099999999998e-03	4.4386200000000002e-08	2	5.0358900000000003e-03	4.4310200000000002e-08	2	false	smoothSolver	5.1784400000000003e-03	3.7645900000000000e-08	2	true	smoothSolver	1.5930300000000001e-02	1.1380400000000000e-07	2	true	GAMG	1.9556299999999999e-02	9.5771300000000001e-04	1	true
0.00025                 	smoothSolver	5.8042800000000002e-03	5.4540200000000002e-08	2	5.0029300000000001e-03	4.3863400000000002e-08	2	4.9784800000000004e-03	4.3785499999999999e-08	2	false	smoothSolver	5.0565699999999998e-03	3.6595499999999998e-08	2	true	smoothSolver	1.5199100000000000e-02	1.0806399999999999e-07	2	true	GAMG	1.8706199999999999e-02	9.1656900000000000e-04	1	true
0.00026                 	smoothSolver	5.7501300000000000e-03	5.3822999999999998e-08	2	4.9499000000000001e-03	4.3369499999999997e-08	2	4.9260800000000002e-03	4.3305299999999999e-08	2	false	smoothSolver	4.9396700000000002e-03	3.5613100000000001e-08	2	true	smoothSolver	1.4526799999999999e-02	1.0285600000000000e-07	2	true	GAMG	1.7903400000000000e-02	8.7846300000000001e-04	1	true
0.00027                 	smoothSolver	5.7032000000000003e-03	5.3164099999999998e-08	2	4.9004199999999999e-03	4.2901299999999998e-08	2	4.8777999999999998e-03	4.2850200000000001e-08	2	false	smoothSolver	4.8274900000000003e-03	3.4645100000000002e-08	2	true	smoothSolver	1.3907299999999999e-02	9.8039299999999998e-08	2	true	GAMG	1.7168500000000000e-02	8.4251400000000004e-04	1	true
0.00028                 	smoothSolver	5.6621600000000003e-03	5.2556900000000000e-08	2	4.8545100000000002e-03	4.2458500000000003e-08	2	4.8332000000000002e-03	4.2426800000000002e-08	2	false	smoothSolver	4.7197400000000000e-03	3.3733500000000002e-08	2	true	smoothSolver	1.3334800000000001e-02	9.3532599999999999e-08	2	true	GAMG	1.6481500000000000e-02	8.0945900000000000e-04	1	true
0.00029                 	smoothSolver	5.6255899999999998e-03	5.1994500000000003e-08	2	4.8116599999999997e-03	4.2041599999999998e-08	2	4.7914400000000001e-03	4.2026199999999999e-08	2	false	smoothSolver	4.6161199999999996e-03	3.2863299999999998e-08	2	true	smoothSolver	1.2803999999999999e-02	8.9385700000000001e-08	2	true	GAMG	1.5862600000000001e-02	7.8032899999999996e-04	1	true
0.0003                  	smoothSolver	5.5928300000000000e-03	5.1473299999999997e-08	2	4.7713100000000000e-03	4.1650900000000001e-08	2	4.7521700000000000e-03	4.1657699999999999e-08	2	false	smoothSolver	4.5163900000000003e-03	3.1972600000000003e-08	2	true	smoothSolver	1.2310700000000001e-02	8.5509700000000000e-08	2	true	GAMG	1.5271600000000000e-02	7.5181900000000003e-04	1	true
0.00031                 	smoothSolver	5.5628300000000004e-03	5.0984399999999997e-08	2	4.7329399999999997e-03	4.1279899999999998e-08	2	4.7148800000000003e-03	4.1303200000000000e-08	2	false	smoothSolver	4.4204400000000003e-03	3.1149800000000000e-08	2	true	smoothSolver	1.1851300000000000e-02	8.1888699999999997e-08	2	true	GAMG	1.4722100000000000e-02	7.2479800000000002e-04	1	true
0.00032                 	smoothSolver	5.5351200000000001e-03	5.0519600000000003e-08	2	4.6963899999999999e-03	4.0922900000000003e-08	2	4.6794499999999999e-03	4.0966100000000003e-08	2	false	smoothSolver	4.3282199999999998e-03	3.0380800000000002e-08	2	true	smoothSolver	1.1422500000000000e-02	7.8582200000000006e-08	2	true	GAMG	1.4214600000000001e-02	7.0192599999999996e-04	1	true
0.00033                 	smoothSolver	5.5089800000000001e-03	5.0078600000000000e-08	2	4.6617999999999998e-03	4.0580999999999998e-08	2	4.6454900000000004e-03	4.0642600000000000e-08	2	false	smoothSolver	4.2397600000000004e-03	2.9601100000000000e-08	2	true	smoothSolver	1.1021800000000000e-02	7.5493000000000000e-08	2	true	GAMG	1.3732100000000001e-02	6.7807900000000005e-04	1	true
0.00034                 	smoothSolver	5.4842399999999996e-03	4.9656900000000000e-08	2	4.6288400000000004e-03	4.0253200000000001e-08	2	4.6129400000000003e-03	4.0330400000000000e-08	2	false	smoothSolver	4.1546400000000002e-03	2.8884100000000001e-08	2	true	smoothSolver	1.0646600000000001e-02	7.2591200000000002e-08	2	true	GAMG	1.3287200000000001e-02	6.5700399999999999e-04	1	true
0.00035                 	smoothSolver	5.4606300000000002e-03	4.9254599999999998e-08	2	4.5975100000000000e-03	3.9938999999999998e-08	2	4.5818899999999999e-03	4.0029099999999999e-08	2	false	smoothSolver	4.0727899999999997e-03	2.8190800000000000e-08	2	true	smoothSolver	1.0294400000000000e-02	6.9815099999999999e-08	2	true	GAMG	1.2873200000000000e-02	6.3778700000000001e-04	1	true
0.00036                 	smoothSolver	5.4380000000000001e-03	4.8864000000000000e-08	2	4.5676199999999997e-03	3.9638600000000000e-08	2	4.5522000000000002e-03	3.9736900000000002e-08	2	false	smoothSolver	3.9940699999999997e-03	2.7525399999999998e-08	2	true	smoothSolver	9.9633299999999994e-03	6.7207699999999999e-08	2	true	GAMG	1.2465900000000000e-02	6.1704499999999998e-04	1	true
0.00037                 	smoothSolver	5.4159999999999998e-03	4.8486500000000002e-08	2	4.5389699999999998e-03	3.9347600000000001e-08	2	4.5236499999999997e-03	3.9451199999999998e-08	2	false	smoothSolver	3.9182000000000002e-03	2.6880899999999999e-08	2	true	smoothSolver	9.6516399999999995e-03	6.4796499999999994e-08	2	true	GAMG	1.2102399999999999e-02	6.0030999999999995e-04	1	true
0.00038                 	smoothSolver	5.3945299999999998e-03	4.8122900000000001e-08	2	4.5114300000000003e-03	3.9064800000000002e-08	2	4.4963900000000003e-03	3.9176900000000002e-08	2	false	smoothSolver	3.8452400000000002e-03	2.6264400000000001e-08	2	true	smoothSolver	9.3580099999999999e-03	6.2509299999999997e-08	2	true	GAMG	1.1761600000000001e-02	5.8538299999999998e-04	1	true
0.00039                 	smoothSolver	5.3732800000000002e-03	4.7768600000000001e-08	2	4.4847699999999999e-03	3.8791699999999998e-08	2	4.4701300000000001e-03	3.8907800000000002e-08	2	false	smoothSolver	3.7750399999999999e-03	2.5661900000000000e-08	2	true	smoothSolver	9.0808599999999996e-03	6.0380000000000002e-08	2	true	GAMG	1.1416900000000001e-02	5.6793999999999996e-04	1	true
0.0004                  	smoothSolver	5.3525100000000004e-03	4.7424600000000001e-08	2	4.4591600000000002e-03	3.8527800000000002e-08	2	4.4448200000000004e-03	3.8650400000000000e-08	2	false	smoothSolver	3.7073100000000001e-03	2.5092000000000001e-08	2	true	smoothSolver	8.8187500000000002e-03	5.8329800000000003e-08	2	true	GAMG	1.1082399999999999e-02	5.5115800000000005e-04	1	true
0.00041                 	smoothSolver	5.3319999999999999e-03	4.7087999999999998e-08	2	4.4344500000000004e-03	3.8269999999999998e-08	2	4.4202399999999998e-03	3.8396700000000000e-08	2	false	smoothSolver	3.6422300000000002e-03	2.4557700000000001e-08	2	true	smoothSolver	8.5709400000000008e-03	5.6427800000000003e-08	2	true	GAMG	1.0788799999999999e-02	5.3882900000000000e-04	1	true
0.00042                 	smoothSolver	5.3117299999999998e-03	4.6761999999999999e-08	2	4.4105699999999999e-03	3.8021199999999998e-08	2	4.3965100000000002e-03	3.8153700000000002e-08	2	false	smoothSolver	3.5796900000000000e-03	2.4036900000000000e-08	2	true	smoothSolver	8.3361900000000003e-03	5.4621600000000003e-08	2	true	GAMG	1.0491600000000000e-02	5.2371799999999995e-04	1	true
0.00043                 	smoothSolver	5.2916899999999999e-03	4.6441699999999997e-08	2	4.3875900000000002e-03	3.7779300000000000e-08	2	4.3736000000000001e-03	3.7915599999999998e-08	2	false	smoothSolver	3.5195399999999998e-03	2.3525399999999999e-08	2	true	smoothSolver	8.1136100000000003e-03	5.2901800000000002e-08	2	true	GAMG	1.0222000000000000e-02	5.1182799999999998e-04	1	true
0.00044                 	smoothSolver	5.2720500000000003e-03	4.6129600000000002e-08	2	4.3651999999999996e-03	3.7543100000000000e-08	2	4.3512300000000002e-03	3.7683600000000000e-08	2	false	smoothSolver	3.4616800000000000e-03	2.3046200000000001e-08	2	true	smoothSolver	7.9024100000000003e-03	5.1289399999999999e-08	2	true	GAMG	9.9600499999999998e-03	4.9913400000000004e-04	1	true
0.00045                 	smoothSolver	5.2525899999999997e-03	4.5824500000000001e-08	2	4.3433100000000004e-03	3.7311500000000003e-08	2	4.3294700000000002e-03	3.7456299999999998e-08	2	false	smoothSolver	3.4059799999999999e-03	2.2590700000000001e-08	2	true	smoothSolver	7.7018900000000003e-03	4.9801200000000001e-08	2	true	GAMG	9.7029999999999998e-03	4.8673999999999999e-04	1	true
0.00046                 	smoothSolver	5.2332999999999998e-03	4.5528700000000001e-08	2	4.3220500000000000e-03	3.7089399999999997e-08	2	4.3084100000000004e-03	3.7239099999999999e-08	2	false	smoothSolver	3.3524200000000001e-03	2.2145500000000001e-08	2	true	smoothSolver	7.5112900000000003e-03	4.8343700000000003e-08	2	true	GAMG	9.4643899999999996e-03	4.7563899999999998e-04	1	true
0.00047                 	smoothSolver	5.2141399999999999e-03	4.5239900000000001e-08	2	4.3013100000000000e-03	3.6871800000000003e-08	2	4.2877799999999997e-03	3.7026700000000002e-08	2	false	smoothSolver	3.3009500000000000e-03	2.1716600000000000e-08	2	true	smoothSolver	7.3300700000000002e-03	4.6916899999999997e-08	2	true	GAMG	9.2394399999999998e-03	4.6516599999999998e-04	1	true
0.00048                 	smoothSolver	5.1949600000000002e-03	4.4954799999999997e-08	2	4.2810399999999998e-03	3.6660099999999998e-08	2	4.2678000000000004e-03	3.6820100000000000e-08	2	false	smoothSolver	3.2515000000000000e-03	9.8816200000000001e-06	1	true	smoothSolver	7.1577100000000003e-03	4.5586299999999998e-08	2	true	GAMG	9.0097900000000002e-03	4.5308200000000000e-04	1	true
0.00049                 	smoothSolver	5.1758400000000001e-03	4.4675500000000002e-08	2	4.2612900000000000e-03	3.6454100000000002e-08	2	4.2482900000000001e-03	3.6615400000000002e-08	2	false	smoothSolver	3.2040400000000000e-03	9.7118599999999999e-06	1	true	smoothSolver	6.9935500000000003e-03	4.4371400000000003e-08	2	true	GAMG	8.8024499999999999e-03	4.4329900000000003e-04	1	true
0.0005                  	smoothSolver	5.1569700000000003e-03	4.4403300000000000e-08	2	4.2419500000000004e-03	3.6250899999999999e-08	2	4.2293299999999999e-03	3.6417000000000001e-08	2	false	smoothSolver	3.1583800000000001e-03	9.5459499999999996e-06	1	true	smoothSolver	6.8370100000000001e-03	4.3183300000000000e-08	2	true	GAMG	8.6102499999999998e-03	4.3537099999999999e-04	1	true
0.00051                 	smoothSolver	5.1382399999999996e-03	4.4136900000000001e-08	2	4.2230100000000001e-03	3.6051899999999999e-08	2	4.2107899999999998e-03	3.6221499999999998e-08	2	false	smoothSolver	3.1143700000000000e-03	9.3889799999999997e-06	1	true	smoothSolver	6.6875399999999996e-03	4.2075599999999997e-08	2	true	GAMG	8.4217600000000004e-03	4.2601599999999998e-04	1	true
0.00052                 	smoothSolver	5.1196300000000000e-03	4.3875199999999998e-08	2	4.2045299999999997e-03	3.5857199999999999e-08	2	4.1927199999999996e-03	3.6033100000000001e-08	2	false	smoothSolver	3.0719699999999998e-03	9.2388200000000001e-06	1	true	smoothSolver	6.5450200000000004e-03	4.0988800000000000e-08	2	true	GAMG	8.2495799999999994e-03	4.1932900000000002e-04	1	true
0.00053                 	smoothSolver	5.1009599999999999e-03	4.3615399999999999e-08	2	4.1865799999999996e-03	3.5665200000000000e-08	2	4.1749200000000004e-03	3.5847100000000002e-08	2	false	smoothSolver	3.0311499999999998e-03	9.0888199999999998e-06	1	true	smoothSolver	6.4089699999999999e-03	3.9972999999999997e-08	2	true	GAMG	8.0840800000000004e-03	4.1235300000000001e-04	1	true
0.00054                 	smoothSolver	5.0823800000000001e-03	4.3361199999999998e-08	2	4.1689700000000001e-03	3.5477699999999999e-08	2	4.1576499999999997e-03	3.5666100000000002e-08	2	false	smoothSolver	2.9918000000000002e-03	8.9465399999999992e-06	1	true	smoothSolver	6.2790199999999997e-03	3.8997600000000001e-08	2	true	GAMG	7.9051799999999995e-03	4.0188300000000001e-04	1	true
0.00055                 	smoothSolver	5.0638400000000000e-03	4.3108800000000002e-08	2	4.1517000000000004e-03	3.5297299999999998e-08	2	4.1404900000000001e-03	3.5488500000000000e-08	2	false	smoothSolver	2.9537999999999999e-03	8.8084399999999996e-06	1	true	smoothSolver	6.1546999999999999e-03	3.8050799999999997e-08	2	true	GAMG	7.7442500000000003e-03	3.9441100000000000e-04	1	true
0.00056                 	smoothSolver	5.0454699999999998e-03	4.2862700000000002e-08	2	4.1348000000000001e-03	3.5118499999999998e-08	2	4.1239199999999997e-03	3.5314500000000002e-08	2	false	smoothSolver	2.9172600000000001e-03	8.6753300000000002e-06	1	true	smoothSolver	6.0358599999999997e-03	3.7163400000000002e-08	2	true	GAMG	7.5833999999999997e-03	3.8622400000000001e-04	1	true
0.00057                 	smoothSolver	5.0272700000000003e-03	4.2620199999999998e-08	2	4.1181500000000001e-03	3.4940699999999999e-08	2	4.1075000000000000e-03	3.5143200000000003e-08	2	false	smoothSolver	2.8821099999999998e-03	8.5468499999999993e-06	1	true	smoothSolver	5.9221899999999999e-03	3.6273300000000000e-08	2	true	GAMG	7.4339699999999998e-03	3.7950199999999999e-04	1	true
0.00058                 	smoothSolver	5.0090999999999998e-03	4.2381100000000000e-08	2	4.1018399999999998e-03	3.4769200000000003e-08	2	4.0914799999999998e-03	3.4975900000000003e-08	2	false	smoothSolver	2.8482199999999998e-03	8.4244000000000002e-06	1	true	smoothSolver	5.8132499999999998e-03	3.5454799999999998e-08	2	true	GAMG	7.2893500000000000e-03	3.7157800000000001e-04	1	true
0.00059                 	smoothSolver	4.9909300000000002e-03	4.2147199999999998e-08	2	4.0859800000000003e-03	3.4602500000000002e-08	2	4.0757199999999997e-03	3.4811300000000003e-08	2	false	smoothSolver	2.8156000000000001e-03	8.3053800000000004e-06	1	true	smoothSolver	5.7088399999999997e-03	3.4670099999999998e-08	2	true	GAMG	7.1615200000000002e-03	3.6690500000000000e-04	1	true
0.0006                  	smoothSolver	4.9729500000000003e-03	4.1917800000000001e-08	2	4.0703099999999997e-03	3.4435300000000000e-08	2	4.0601500000000002e-03	3.4648500000000001e-08	2	false	smoothSolver	2.7842399999999999e-03	8.1923499999999996e-06	1	true	smoothSolver	5.6089099999999999e-03	3.3926799999999999e-08	2	true	GAMG	7.0230700000000002e-03	3.5930400000000001e-04	1	true
0.00061                 	smoothSolver	4.9548900000000000e-03	4.1690200000000002e-08	2	4.0549300000000000e-03	3.4273900000000001e-08	2	4.0447900000000004e-03	3.4488100000000003e-08	2	false	smoothSolver	2.7540600000000000e-03	8.0831000000000006e-06	1	true	smoothSolver	5.5130800000000001e-03	3.3198999999999998e-08	2	true	GAMG	6.9027600000000000e-03	3.5361000000000002e-04	1	true
0.00062                 	smoothSolver	4.9368600000000004e-03	4.1463300000000002e-08	2	4.0397400000000000e-03	3.4116599999999999e-08	2	4.0295699999999997e-03	3.4330200000000001e-08	2	false	smoothSolver	2.7250199999999999e-03	7.9759900000000005e-06	1	true	smoothSolver	5.4212799999999997e-03	3.2513400000000003e-08	2	true	GAMG	6.7822400000000001e-03	3.4789400000000001e-04	1	true
0.00063                 	smoothSolver	4.9188900000000004e-03	4.1237500000000001e-08	2	4.0248300000000001e-03	3.3962899999999999e-08	2	4.0147799999999999e-03	3.4177200000000000e-08	2	false	smoothSolver	2.6970599999999998e-03	7.8732100000000001e-06	1	true	smoothSolver	5.3333399999999998e-03	3.1866799999999999e-08	2	true	GAMG	6.6645400000000000e-03	3.4340599999999998e-04	1	true
0.00064                 	smoothSolver	4.9011200000000001e-03	4.1016799999999998e-08	2	4.0101700000000004e-03	3.3811200000000002e-08	2	4.0001500000000001e-03	3.4023699999999998e-08	2	false	smoothSolver	2.6701799999999999e-03	7.7765400000000003e-06	1	true	smoothSolver	5.2489099999999999e-03	3.1258899999999997e-08	2	true	GAMG	6.5531000000000001e-03	3.3690499999999997e-04	1	true
0.00065                 	smoothSolver	4.8833300000000000e-03	4.0796100000000002e-08	2	3.9958299999999997e-03	3.3662900000000003e-08	2	3.9858400000000000e-03	3.3873500000000002e-08	2	false	smoothSolver	2.6442400000000000e-03	7.6836000000000004e-06	1	true	smoothSolver	5.1678200000000001e-03	3.0670700000000001e-08	2	true	GAMG	6.4489500000000002e-03	3.3260599999999999e-04	1	true
0.00066                 	smoothSolver	4.8653400000000001e-03	4.0575100000000003e-08	2	3.9817999999999997e-03	3.3516600000000000e-08	2	3.9718100000000001e-03	3.3726799999999997e-08	2	false	smoothSolver	2.6192099999999999e-03	7.5927700000000000e-06	1	true	smoothSolver	5.0899700000000001e-03	3.0101199999999997e-08	2	true	GAMG	6.3453499999999996e-03	3.2761200000000002e-04	1	true
0.00067                 	smoothSolver	4.8476700000000001e-03	4.0358700000000001e-08	2	3.9679900000000002e-03	3.3373899999999999e-08	2	3.9579899999999998e-03	3.3582100000000001e-08	2	false	smoothSolver	2.5950900000000000e-03	7.5077500000000002e-06	1	true	smoothSolver	5.0152199999999999e-03	2.9566900000000001e-08	2	true	GAMG	6.2417699999999998e-03	3.2193800000000002e-04	1	true
0.00068                 	smoothSolver	4.8296499999999996e-03	4.0142499999999997e-08	2	3.9543699999999996e-03	3.3231100000000000e-08	2	3.9444099999999998e-03	3.3441299999999998e-08	2	false	smoothSolver	2.5718400000000002e-03	7.4247600000000002e-06	1	true	smoothSolver	4.9433999999999997e-03	2.9043399999999999e-08	2	true	GAMG	6.1462100000000000e-03	3.1739700000000002e-04	1	true
0.00069                 	smoothSolver	4.8120899999999998e-03	3.9931299999999998e-08	2	3.9408100000000003e-03	3.3090299999999997e-08	2	3.9308800000000003e-03	3.3300900000000003e-08	2	false	smoothSolver	2.5494400000000000e-03	7.3416700000000000e-06	1	true	smoothSolver	4.8743700000000003e-03	2.8552200000000001e-08	2	true	GAMG	6.0477300000000003e-03	3.1174099999999998e-04	1	true
0.0007                  	smoothSolver	4.7943600000000001e-03	3.9719000000000000e-08	2	3.9275400000000002e-03	3.2952700000000001e-08	2	3.9175299999999998e-03	3.3163499999999998e-08	2	false	smoothSolver	2.5277699999999999e-03	7.2637900000000000e-06	1	true	smoothSolver	4.8079100000000003e-03	2.8057600000000000e-08	2	true	GAMG	5.9559900000000004e-03	3.0823400000000000e-04	1	true
0.00071                 	smoothSolver	4.7766600000000003e-03	3.9507100000000003e-08	2	3.9143700000000003e-03	3.2817000000000002e-08	2	3.9043599999999999e-03	3.3026699999999999e-08	2	false	smoothSolver	2.5068400000000002e-03	7.1884399999999999e-06	1	true	smoothSolver	4.7438999999999997e-03	2.7608199999999999e-08	2	true	GAMG	5.8674399999999998e-03	3.0356900000000001e-04	1	true
0.00072                 	smoothSolver	4.7587100000000002e-03	3.9298900000000001e-08	2	3.9015400000000002e-03	3.2684499999999997e-08	2	3.8913400000000001e-03	3.2893600000000001e-08	2	false	smoothSolver	2.4866599999999999e-03	7.1153500000000004e-06	1	true	smoothSolver	4.6823300000000002e-03	2.7166200000000001e-08	2	true	GAMG	5.7807400000000004e-03	2.9864200000000000e-04	1	true
0.00073                 	smoothSolver	4.7416400000000001e-03	3.9096199999999999e-08	2	3.8886599999999999e-03	3.2553600000000000e-08	2	3.8784100000000001e-03	3.2760200000000001e-08	2	false	smoothSolver	2.4671699999999999e-03	7.0419000000000003e-06	1	true	smoothSolver	4.6230400000000001e-03	2.6740700000000001e-08	2	true	GAMG	5.7022799999999997e-03	2.9418800000000002e-04	1	true
0.00074                 	smoothSolver	4.7238200000000001e-03	3.8892700000000000e-08	2	3.8761300000000002e-03	3.2424199999999997e-08	2	3.8658299999999998e-03	3.2630600000000001e-08	2	false	smoothSolver	2.4483600000000001e-03	6.9720000000000003e-06	1	true	smoothSolver	4.5658499999999998e-03	2.6331599999999999e-08	2	true	GAMG	5.6233100000000003e-03	2.9103199999999999e-04	1	true
0.00075                 	smoothSolver	4.7066299999999998e-03	3.8694000000000002e-08	2	3.8635000000000002e-03	3.2295699999999997e-08	2	3.8533299999999999e-03	3.2500699999999998e-08	2	false	smoothSolver	2.4302400000000002e-03	6.9040800000000000e-06	1	true	smoothSolver	4.5107500000000000e-03	2.5925700000000000e-08	2	true	GAMG	5.5362600000000003e-03	2.8551000000000000e-04	1	true
0.00076                 	smoothSolver	4.6892399999999999e-03	3.8497999999999998e-08	2	3.8511299999999999e-03	3.2169799999999999e-08	2	3.8410400000000000e-03	3.2373600000000001e-08	2	false	smoothSolver	2.4127799999999998e-03	6.8391299999999999e-06	1	true	smoothSolver	4.4575099999999996e-03	2.5539000000000001e-08	2	true	GAMG	5.4746400000000002e-03	2.8364500000000001e-04	1	true
0.00077                 	smoothSolver	4.6719300000000004e-03	3.8301599999999999e-08	2	3.8389299999999999e-03	3.2045000000000000e-08	2	3.8289600000000002e-03	3.2248499999999999e-08	2	false	smoothSolver	2.3958899999999999e-03	6.7775300000000003e-06	1	true	smoothSolver	4.4063000000000001e-03	2.5157300000000001e-08	2	true	GAMG	5.4099500000000002e-03	2.8081800000000001e-04	1	true