# Solver information    
# Time                  	U_solver                	Ux_initial              	Ux_final                	Ux_iters                	Uy_initial              	Uy_final                	Uy_iters                	Uz_initial              	Uz_final                	Uz_iters                	U_converged             	epsilon_solver          	epsilon_initial         	epsilon_final           	epsilon_iters           	epsilon_converged       	k_solver                	k_initial               	k_final                 	k_iters                 	k_converged             	p_solver                	p_initial               	p_final                 	p_iters                 	p_converged             
1e-05                   	smoothSolver	0.0000000000000000e+00	0.0000000000000000e+00	0	0.0000000000000000e+00	0.0000000000000000e+00	0	0.0000000000000000e+00	0.0000000000000000e+00	0	false	smoothSolver	6.6858400000000002e-03	2.9114400000000000e-07	1	true	smoothSolver	1.0000000000000000e+00	2.2292599999999998e-09	2	true	GAMG	1.0000000000000000e+00	3.0877300000000000e-02	2	true
2e-05                   	smoothSolver	9.9998799999999999e-01	2.5269099999999999e-09	2	3.3308900000000002e-01	7.1449099999999999e-10	2	3.3323799999999998e-01	7.1097800000000004e-10	2	false	smoothSolver	6.6067200000000000e-03	1.5585200000000001e-07	2	true	smoothSolver	4.8302699999999998e-01	4.7976900000000001e-08	3	true	GAMG	9.9655499999999997e-01	7.0660500000000001e-02	1	true
3e-05                   	smoothSolver	3.5065400000000002e-01	7.8892300000000006e-08	3	3.3253600000000000e-01	1.6693100000000000e-07	3	3.3228700000000000e-01	1.6694699999999999e-07	3	false	smoothSolver	6.5508700000000003e-03	8.3523199999999997e-08	2	true	smoothSolver	3.1827200000000000e-01	3.8731500000000003e-06	2	true	GAMG	8.9696200000000004e-01	4.1394899999999998e-02	1	true
4e-05                   	smoothSolver	2.6191500000000001e-01	7.0894500000000000e-08	3	3.0915199999999998e-01	7.6267799999999998e-06	2	3.0892700000000001e-01	7.6047000000000002e-06	2	false	smoothSolver	6.4925099999999999e-03	6.7526599999999998e-08	2	true	smoothSolver	2.3682300000000001e-01	2.3189299999999999e-06	2	true	GAMG	3.6165500000000000e-01	2.4958700000000000e-02	1	true
5e-05                   	smoothSolver	9.8543800000000001e-02	3.7501500000000000e-06	2	1.4826500000000001e-01	3.5161100000000000e-06	2	1.4824899999999999e-01	3.5853199999999999e-06	2	false	smoothSolver	6.4347500000000004e-03	5.9428500000000002e-08	2	true	smoothSolver	1.8832499999999999e-01	1.6365999999999999e-06	2	true	GAMG	2.6028400000000002e-01	1.2772800000000001e-02	1	true
6e-05                   	smoothSolver	5.3119800000000002e-02	1.4712500000000001e-06	2	8.7551699999999996e-02	1.9289599999999998e-06	2	8.9408299999999996e-02	1.9603999999999999e-06	2	false	smoothSolver	6.3778000000000003e-03	5.4341999999999998e-08	2	true	smoothSolver	1.5620500000000001e-01	1.2610800000000000e-06	2	true	GAMG	2.5031900000000001e-01	1.2094499999999999e-02	1	true
7e-05                   	smoothSolver	2.7834299999999999e-02	7.6122400000000004e-07	2	5.1748599999999999e-02	1.1408200000000001e-06	2	5.3412800000000003e-02	1.1411400000000000e-06	2	false	smoothSolver	6.3215900000000002e-03	5.0977699999999999e-08	2	true	smoothSolver	1.3339000000000001e-01	1.0216900000000000e-06	2	true	GAMG	2.4341099999999999e-01	1.3218100000000000e-02	1	true
8e-05                   	smoothSolver	2.3676699999999998e-02	6.9805000000000003e-07	2	3.3864100000000001e-02	6.7244600000000001e-07	2	3.5006000000000002e-02	6.6719299999999996e-07	2	false	smoothSolver	6.2663399999999996e-03	4.8492500000000002e-08	2	true	smoothSolver	1.1637599999999999e-01	8.5678500000000001e-07	2	true	GAMG	2.1504699999999999e-01	1.3761799999999999e-02	1	true
9e-05                   	smoothSolver	2.7839500000000000e-02	8.4734900000000000e-07	2	2.3042500000000000e-02	4.0262599999999999e-07	2	2.3777000000000000e-02	4.0072000000000000e-07	2	false	smoothSolver	6.2120900000000000e-03	4.6634900000000002e-08	2	true	smoothSolver	1.0321000000000000e-01	7.3696099999999998e-07	2	true	GAMG	1.5404399999999999e-01	1.1986300000000000e-02	1	true
0.0001                  	smoothSolver	2.8102200000000001e-02	8.2516699999999999e-07	2	1.7785400000000000e-02	2.8884300000000001e-07	2	1.8019100000000000e-02	2.8932200000000000e-07	2	false	smoothSolver	6.1587300000000003e-03	4.5047400000000001e-08	2	true	smoothSolver	9.2721600000000001e-02	6.4582300000000003e-07	2	true	GAMG	1.0129400000000000e-01	8.8657100000000006e-03	1	true
0.00011                 	smoothSolver	2.4756500000000001e-02	7.1642099999999998e-07	2	1.4786100000000000e-02	2.4344000000000001e-07	2	1.5084100000000000e-02	2.4296600000000001e-07	2	false	smoothSolver	6.1062599999999996e-03	4.3788600000000001e-08	2	true	smoothSolver	8.4168499999999993e-02	5.7449100000000003e-07	2	true	GAMG	7.8754400000000002e-02	6.9994000000000002e-03	1	true
0.00012                 	smoothSolver	2.1572999999999998e-02	6.1975600000000003e-07	2	1.2731700000000000e-02	2.1558200000000000e-07	2	1.3077300000000000e-02	2.1496399999999999e-07	2	false	smoothSolver	6.0546200000000001e-03	4.2724599999999999e-08	2	true	smoothSolver	7.7058699999999994e-02	5.1745500000000005e-07	2	true	GAMG	6.7020499999999997e-02	5.8308199999999996e-03	1	true
0.00013                 	smoothSolver	1.8953899999999999e-02	5.3921100000000005e-07	2	1.1310799999999999e-02	1.9466100000000000e-07	2	1.1715500000000000e-02	1.9510500000000000e-07	2	false	smoothSolver	6.0038100000000000e-03	4.1711700000000000e-08	2	true	smoothSolver	7.1054800000000001e-02	4.7031900000000002e-07	2	true	GAMG	5.9469300000000003e-02	4.9973300000000003e-03	1	true
0.00014                 	smoothSolver	1.6843000000000000e-02	4.7177400000000000e-07	2	1.0223899999999999e-02	1.7600599999999999e-07	2	1.0668199999999999e-02	1.7831099999999999e-07	2	false	smoothSolver	5.9538100000000004e-03	4.0874599999999999e-08	2	true	smoothSolver	6.5916900000000000e-02	4.3065299999999999e-07	2	true	GAMG	5.3850200000000001e-02	4.3494700000000002e-03	1	true
0.00015                 	smoothSolver	1.5103900000000000e-02	4.1621100000000002e-07	2	9.3658600000000002e-03	1.6009700000000001e-07	2	9.7893400000000005e-03	1.6240400000000000e-07	2	false	smoothSolver	5.9045699999999996e-03	4.0188100000000001e-08	2	true	smoothSolver	6.1469999999999997e-02	3.9753900000000002e-07	2	true	GAMG	4.9557999999999998e-02	3.8295600000000001e-03	1	true
0.00016                 	smoothSolver	1.3756900000000001e-02	3.7205800000000001e-07	2	8.7119799999999994e-03	1.4696499999999999e-07	2	9.0734800000000001e-03	1.4864800000000000e-07	2	false	smoothSolver	5.8560900000000004e-03	3.9413999999999998e-08	2	true	smoothSolver	5.7583099999999998e-02	3.6863100000000001e-07	2	true	GAMG	4.5891700000000001e-02	3.4169000000000001e-03	1	true
0.00017                 	smoothSolver	1.2621800000000001e-02	3.3398100000000000e-07	2	8.1427400000000007e-03	1.3539900000000001e-07	2	8.4502599999999994e-03	1.3711099999999999e-07	2	false	smoothSolver	5.8083099999999997e-03	3.8801400000000000e-08	2	true	smoothSolver	5.4156799999999998e-02	3.4385600000000001e-07	2	true	GAMG	4.2984399999999999e-02	3.0798700000000002e-03	1	true
0.00018                 	smoothSolver	1.1611300000000000e-02	3.0048499999999998e-07	2	7.6282900000000002e-03	1.2528900000000000e-07	2	7.8862700000000008e-03	1.2625999999999999e-07	2	false	smoothSolver	5.7612499999999999e-03	3.8186500000000002e-08	2	true	smoothSolver	5.1113600000000002e-02	3.2234600000000002e-07	2	true	GAMG	4.0263800000000002e-02	2.7878700000000000e-03	1	true
0.00019                 	smoothSolver	1.0722100000000000e-02	2.7170300000000001e-07	2	7.1724500000000004e-03	1.1695300000000000e-07	2	7.3894700000000004e-03	1.1684500000000000e-07	2	false	smoothSolver	5.7148800000000003e-03	3.7618900000000002e-08	2	true	smoothSolver	4.8392499999999998e-02	3.0301499999999999e-07	2	true	GAMG	3.7784400000000003e-02	2.5366299999999998e-03	1	true
0.0002                  	smoothSolver	9.9585500000000000e-03	2.4746000000000002e-07	2	6.7685699999999998e-03	1.0964900000000000e-07	2	6.9610100000000001e-03	1.0891300000000000e-07	2	false	smoothSolver	5.6691500000000004e-03	3.7129000000000001e-08	2	true	smoothSolver	4.5945100000000003e-02	2.8635799999999998e-07	2	true	GAMG	3.5478799999999998e-02	2.2837800000000000e-03	1	true
0.00021                 	smoothSolver	9.3315599999999992e-03	2.2771500000000000e-07	2	6.4209100000000002e-03	1.0369700000000001e-07	2	6.5875999999999999e-03	1.0256500000000001e-07	2	false	smoothSolver	5.6240900000000000e-03	3.6614300000000002e-08	2	true	smoothSolver	4.3731800000000001e-02	2.7098499999999999e-07	2	true	GAMG	3.3363799999999999e-02	2.0533900000000000e-03	1	true
0.00022                 	smoothSolver	8.7664200000000005e-03	2.1004900000000000e-07	2	6.1127799999999999e-03	9.8365499999999995e-08	2	6.2561300000000004e-03	9.6662400000000004e-08	2	false	smoothSolver	5.5796400000000003e-03	3.6183900000000003e-08	2	true	smoothSolver	4.1720699999999999e-02	2.5710100000000002e-07	2	true	GAMG	3.1699600000000001e-02	1.8920600000000001e-03	1	true
0.00023                 	smoothSolver	8.2731699999999998e-03	1.9449099999999999e-07	2	5.8368099999999996e-03	9.3456800000000003e-08	2	5.9654100000000000e-03	9.1545500000000004e-08	2	false	smoothSolver	5.5357999999999996e-03	3.5713600000000003e-08	2	true	smoothSolver	3.9884999999999997e-02	2.4484299999999999e-07	2	true	GAMG	3.0129599999999999e-02	1.7584700000000000e-03	1	true
0.00024                 	smoothSolver	7.8432699999999994e-03	1.8117400000000000e-07	2	5.5939900000000001e-03	8.9208100000000006e-08	2	5.7099700000000000e-03	8.7372100000000002e-08	2	false	smoothSolver	5.4925699999999996e-03	3.5308100000000000e-08	2	true	smoothSolver	3.8202800000000002e-02	2.3342200000000001e-07	2	true	GAMG	2.8539599999999998e-02	1.6256899999999999e-03	1	true
0.00025                 	smoothSolver	7.4626400000000004e-03	1.6931000000000000e-07	2	5.3866900000000004e-03	8.5616399999999999e-08	2	5.4918199999999997e-03	8.3804300000000004e-08	2	false	smoothSolver	5.4499300000000004e-03	3.4904099999999998e-08	2	true	smoothSolver	3.6655600000000003e-02	2.2310300000000001e-07	2	true	GAMG	2.7256900000000001e-02	1.5255399999999999e-03	1	true
0.00026                 	smoothSolver	7.1228999999999997e-03	1.5866700000000000e-07	2	5.2145400000000001e-03	8.2476799999999994e-08	2	5.3129800000000001e-03	8.0678399999999998e-08	2	false	smoothSolver	5.4078700000000004e-03	3.4494200000000002e-08	2	true	smoothSolver	3.5227700000000001e-02	2.1368600000000000e-07	2	true	GAMG	2.6056500000000000e-02	1.4392299999999999e-03	1	true
0.00027                 	smoothSolver	6.8167999999999996e-03	1.4896999999999999e-07	2	5.0686999999999998e-03	7.9616599999999996e-08	2	5.1564000000000002e-03	7.7935300000000006e-08	2	false	smoothSolver	5.3663799999999996e-03	3.4105300000000003e-08	2	true	smoothSolver	3.3905699999999997e-02	2.0471399999999999e-07	2	true	GAMG	2.4867600000000000e-02	1.3600400000000001e-03	1	true
0.00028                 	smoothSolver	6.5426900000000003e-03	1.4049599999999999e-07	2	4.9385100000000001e-03	7.7049900000000000e-08	2	5.0165399999999999e-03	7.5507099999999995e-08	2	false	smoothSolver	5.3254399999999999e-03	3.3755099999999999e-08	2	true	smoothSolver	3.2678300000000000e-02	1.9669700000000000e-07	2	true	GAMG	2.3763099999999999e-02	1.2863900000000001e-03	1	true
0.00029                 	smoothSolver	6.2912799999999998e-03	1.3300900000000000e-07	2	4.8161599999999999e-03	7.4728099999999998e-08	2	4.8894200000000002e-03	7.3317099999999999e-08	2	false	smoothSolver	5.2850600000000003e-03	3.3356800000000001e-08	2	true	smoothSolver	3.1535800000000003e-02	1.8935900000000000e-07	2	true	GAMG	2.2749900000000000e-02	1.2197400000000000e-03	1	true
0.0003                  	smoothSolver	6.0552300000000000e-03	1.2607099999999999e-07	2	4.7005600000000003e-03	7.2582299999999997e-08	2	4.7720400000000000e-03	7.1242900000000006e-08	2	false	smoothSolver	5.2452000000000002e-03	3.3008699999999998e-08	2	true	smoothSolver	3.0469500000000000e-02	1.8235499999999999e-07	2	true	GAMG	2.1873699999999999e-02	1.1653000000000000e-03	1	true
0.00031                 	smoothSolver	5.8376000000000001e-03	1.1967900000000000e-07	2	4.5938000000000003e-03	7.0576100000000002e-08	2	4.6616499999999998e-03	6.9300900000000001e-08	2	false	smoothSolver	5.2058800000000004e-03	3.2653100000000000e-08	2	true	smoothSolver	2.9472100000000001e-02	1.7579199999999999e-07	2	true	GAMG	2.1015400000000000e-02	1.1197100000000001e-03	1	true
0.00032                 	smoothSolver	5.6364300000000004e-03	1.1379300000000001e-07	2	4.4952200000000003e-03	6.8724899999999996e-08	2	4.5605500000000000e-03	6.7512500000000003e-08	2	false	smoothSolver	5.1670800000000001e-03	3.2320500000000001e-08	2	true	smoothSolver	2.8537199999999999e-02	1.6985700000000001e-07	2	true	GAMG	2.0211400000000001e-02	1.0765600000000001e-03	1	true
0.00033                 	smoothSolver	5.4538299999999998e-03	1.0849300000000000e-07	2	4.4041999999999996e-03	6.6988500000000005e-08	2	4.4650000000000002e-03	6.5874100000000004e-08	2	false	smoothSolver	5.1287800000000003e-03	3.2002900000000000e-08	2	true	smoothSolver	2.7658900000000000e-02	1.6409999999999999e-07	2	true	GAMG	1.9361099999999999e-02	1.0304600000000000e-03	1	true
0.00034                 	smoothSolver	5.2859900000000000e-03	1.0356600000000000e-07	2	4.3194799999999997e-03	6.5359600000000002e-08	2	4.3755399999999998e-03	6.4283900000000003e-08	2	false	smoothSolver	5.0909700000000002e-03	3.1705400000000000e-08	2	true	smoothSolver	2.6832399999999999e-02	1.5868099999999999e-07	2	true	GAMG	1.8658000000000001e-02	9.9489299999999995e-04	1	true
0.00035                 	smoothSolver	5.1326100000000001e-03	9.9089400000000003e-08	2	4.2396500000000002e-03	6.3808300000000001e-08	2	4.2918699999999997e-03	6.2787500000000006e-08	2	false	smoothSolver	5.0536499999999998e-03	3.1360800000000001e-08	2	true	smoothSolver	2.6053099999999999e-02	1.5383400000000000e-07	2	true	GAMG	1.8028400000000000e-02	9.5993000000000001e-04	1	true
0.00036                 	smoothSolver	4.9916600000000002e-03	9.4964700000000001e-08	2	4.1669100000000002e-03	6.2365200000000000e-08	2	4.2161100000000003e-03	6.1391900000000006e-08	2	false	smoothSolver	5.0168000000000001e-03	3.1095199999999999e-08	2	true	smoothSolver	2.5317200000000002e-02	1.4921600000000000e-07	2	true	GAMG	1.7437399999999999e-02	9.2795300000000002e-04	1	true
0.00037                 	smoothSolver	4.8600099999999997e-03	9.1077200000000000e-08	2	4.0999900000000004e-03	6.1044000000000001e-08	2	4.1462599999999997e-03	6.0140400000000003e-08	2	false	smoothSolver	4.9804100000000002e-03	3.0809600000000001e-08	2	true	smoothSolver	2.4621100000000000e-02	1.4466000000000000e-07	2	true	GAMG	1.6865499999999999e-02	8.9873899999999996e-04	1	true
0.00038                 	smoothSolver	4.7392700000000003e-03	8.7584899999999994e-08	2	4.0367600000000003e-03	5.9810700000000002e-08	2	4.0815599999999997e-03	5.8984000000000001e-08	2	false	smoothSolver	4.9444800000000002e-03	3.0519499999999997e-08	2	true	smoothSolver	2.3961600000000000e-02	1.4066399999999999e-07	2	true	GAMG	1.6264199999999999e-02	8.6702800000000005e-04	1	true
0.00039                 	smoothSolver	4.6298099999999998e-03	8.4437099999999996e-08	2	3.9779400000000001e-03	5.8688100000000001e-08	2	4.0227199999999996e-03	5.7911399999999997e-08	2	false	smoothSolver	4.9090000000000002e-03	3.0234200000000002e-08	2	true	smoothSolver	2.3335999999999999e-02	1.3671699999999999e-07	2	true	GAMG	1.5734300000000000e-02	8.3733799999999997e-04	1	true
0.0004                  	smoothSolver	4.5316899999999997e-03	8.1618499999999997e-08	2	3.9240600000000000e-03	5.7668200000000002e-08	2	3.9694900000000000e-03	5.6925199999999999e-08	2	false	smoothSolver	4.8739500000000002e-03	2.9955500000000000e-08	2	true	smoothSolver	2.2741600000000001e-02	1.3289800000000000e-07	2	true	GAMG	1.5264399999999999e-02	8.0938500000000003e-04	1	true
0.00041                 	smoothSolver	4.4421900000000004e-03	7.9005499999999999e-08	2	3.8736999999999999e-03	5.6714400000000003e-08	2	3.9205899999999998e-03	5.6006200000000003e-08	2	false	smoothSolver	4.8393400000000001e-03	2.9667399999999999e-08	2	true	smoothSolver	2.2176299999999999e-02	1.2941099999999999e-07	2	true	GAMG	1.4865900000000000e-02	7.8471400000000005e-04	1	true
0.00042                 	smoothSolver	4.3600599999999998e-03	7.6552800000000000e-08	2	3.8269400000000000e-03	5.5806999999999998e-08	2	3.8748300000000001e-03	5.5146700000000001e-08	2	false	smoothSolver	4.8051500000000002e-03	2.9396300000000000e-08	2	true	smoothSolver	2.1637799999999999e-02	1.2600800000000000e-07	2	true	GAMG	1.4479600000000000e-02	7.6587800000000000e-04	1	true
0.00043                 	smoothSolver	4.2842899999999996e-03	7.4253999999999998e-08	2	3.7827400000000001e-03	5.4953299999999999e-08	2	3.8313599999999998e-03	5.4328199999999999e-08	2	false	smoothSolver	4.7713699999999996e-03	2.9164900000000001e-08	2	true	smoothSolver	2.1124500000000001e-02	1.2279700000000001e-07	2	true	GAMG	1.4086899999999999e-02	7.4328600000000001e-04	1	true
0.00044                 	smoothSolver	4.2139899999999999e-03	7.2076300000000006e-08	2	3.7414200000000001e-03	5.4136399999999998e-08	2	3.7901400000000000e-03	5.3548399999999999e-08	2	false	smoothSolver	4.7380000000000000e-03	2.8884299999999999e-08	2	true	smoothSolver	2.0634400000000001e-02	1.1977700000000000e-07	2	true	GAMG	1.3722699999999999e-02	7.2676399999999997e-04	1	true
0.00045                 	smoothSolver	4.1490199999999998e-03	7.0016699999999995e-08	2	3.7027499999999999e-03	5.3374900000000001e-08	2	3.7507199999999999e-03	5.2797800000000003e-08	2	false	smoothSolver	4.7050299999999998e-03	2.8655399999999999e-08	2	true	smoothSolver	2.0166099999999999e-02	1.1677400000000000e-07	2	true	GAMG	1.3407799999999999e-02	7.1364400000000004e-04	1	true
0.00046                 	smoothSolver	4.0887800000000002e-03	6.8073300000000006e-08	2	3.6656499999999999e-03	5.2648100000000001e-08	2	3.7134700000000000e-03	5.2071499999999997e-08	2	false	smoothSolver	4.6724599999999998e-03	2.8405499999999999e-08	2	true	smoothSolver	1.9718200000000002e-02	1.1392000000000000e-07	2	true	GAMG	1.3127200000000000e-02	7.0124800000000002e-04	1	true
0.00047                 	smoothSolver	4.0310600000000004e-03	6.6223100000000002e-08	2	3.6297500000000002e-03	5.1952400000000003e-08	2	3.6777400000000001e-03	5.1394300000000000e-08	2	false	smoothSolver	4.6402700000000002e-03	2.8166100000000001e-08	2	true	smoothSolver	1.9289400000000002e-02	1.1136200000000000e-07	2	true	GAMG	1.2822300000000000e-02	6.8484100000000005e-04	1	true
0.00048                 	smoothSolver	3.9770300000000003e-03	6.4494400000000003e-08	2	3.5952200000000001e-03	5.1294999999999997e-08	2	3.6437000000000002e-03	5.0739700000000000e-08	2	false	smoothSolver	4.6084699999999999e-03	2.7882000000000001e-08	2	true	smoothSolver	1.8878400000000000e-02	1.0873600000000000e-07	2	true	GAMG	1.2478000000000000e-02	6.6711600000000004e-04	1	true
0.00049                 	smoothSolver	3.9266900000000000e-03	6.2877599999999994e-08	2	3.5631999999999999e-03	5.0688999999999998e-08	2	3.6112100000000001e-03	5.0130900000000002e-08	2	false	smoothSolver	4.5770300000000002e-03	2.7684000000000002e-08	2	true	smoothSolver	1.8484100000000000e-02	1.0626900000000000e-07	2	true	GAMG	1.2175300000000000e-02	6.5291899999999996e-04	1	true
0.0005                  	smoothSolver	3.8799199999999998e-03	6.1398400000000000e-08	2	3.5318799999999998e-03	5.0116200000000001e-08	2	3.5796500000000002e-03	4.9543600000000002e-08	2	false	smoothSolver	4.5459599999999999e-03	2.7438399999999999e-08	2	true	smoothSolver	1.8105699999999999e-02	1.0403500000000000e-07	2	true	GAMG	1.1897599999999999e-02	6.3719999999999998e-04	1	true
0.00051                 	smoothSolver	3.8361699999999999e-03	6.0017500000000001e-08	2	3.5023699999999999e-03	4.9567100000000002e-08	2	3.5495300000000000e-03	4.8966700000000001e-08	2	false	smoothSolver	4.5152600000000001e-03	2.7225699999999999e-08	2	true	smoothSolver	1.7742100000000000e-02	1.0172900000000000e-07	2	true	GAMG	1.1641600000000000e-02	6.2313300000000000e-04	1	true
0.00052                 	smoothSolver	3.7945600000000002e-03	5.8724300000000000e-08	2	3.4736799999999998e-03	4.9025200000000001e-08	2	3.5204199999999998e-03	4.8418600000000003e-08	2	false	smoothSolver	4.4849000000000000e-03	2.6994800000000000e-08	2	true	smoothSolver	1.7392399999999999e-02	9.9632199999999999e-08	2	true	GAMG	1.1433900000000000e-02	6.1049900000000002e-04	1	true
0.00053                 	smoothSolver	3.7552800000000002e-03	5.7509899999999998e-08	2	3.4460099999999998e-03	4.8515100000000000e-08	2	3.4919999999999999e-03	4.7905900000000000e-08	2	false	smoothSolver	4.4549000000000004e-03	2.6758800000000001e-08	2	true	smoothSolver	1.7056000000000002e-02	9.7457300000000000e-08	2	true	GAMG	1.1235900000000000e-02	6.0199899999999998e-04	1	true
0.00054                 	smoothSolver	3.7180799999999999e-03	5.6347600000000001e-08	2	3.4193800000000001e-03	4.8026999999999997e-08	2	3.4646299999999998e-03	4.7431499999999997e-08	2	false	smoothSolver	4.4252299999999996e-03	2.6548500000000001e-08	2	true	smoothSolver	1.6732000000000000e-02	9.5497400000000006e-08	2	true	GAMG	1.1055100000000000e-02	5.9366200000000001e-04	1	true
0.00055                 	smoothSolver	3.6825400000000002e-03	5.5242900000000002e-08	2	3.3933800000000001e-03	4.7555300000000001e-08	2	3.4384699999999999e-03	4.6978699999999997e-08	2	false	smoothSolver	4.3959100000000003e-03	2.6312500000000002e-08	2	true	smoothSolver	1.6419699999999999e-02	9.3631000000000000e-08	2	true	GAMG	1.0850900000000000e-02	5.8305900000000003e-04	1	true
0.00056                 	smoothSolver	3.6484199999999999e-03	5.4189800000000000e-08	2	3.3681499999999999e-03	4.7098299999999999e-08	2	3.4132799999999999e-03	4.6534999999999999e-08	2	false	smoothSolver	4.3669199999999998e-03	2.6133200000000001e-08	2	true	smoothSolver	1.6118700000000000e-02	9.1776899999999996e-08	2	true	GAMG	1.0662300000000000e-02	5.7063199999999995e-04	1	true
0.00057                 	smoothSolver	3.6162600000000000e-03	5.3187099999999997e-08	2	3.3442099999999998e-03	4.6648299999999998e-08	2	3.3888199999999999e-03	4.6100299999999999e-08	2	false	smoothSolver	4.3382500000000001e-03	2.5932300000000000e-08	2	true	smoothSolver	1.5828100000000001e-02	9.0022900000000006e-08	2	true	GAMG	1.0489000000000000e-02	5.6426100000000004e-04	1	true
0.00058                 	smoothSolver	3.5857799999999998e-03	5.2230499999999999e-08	2	3.3211500000000001e-03	4.6207599999999997e-08	2	3.3654200000000000e-03	4.5683300000000003e-08	2	false	smoothSolver	4.3098900000000002e-03	2.5702800000000001e-08	2	true	smoothSolver	1.5547600000000000e-02	8.8289200000000002e-08	2	true	GAMG	1.0305800000000000e-02	5.5330400000000001e-04	1	true
0.00059                 	smoothSolver	3.5571700000000001e-03	5.1344099999999999e-08	2	3.2989500000000001e-03	4.5780800000000001e-08	2	3.3426900000000002e-03	4.5290300000000000e-08	2	false	smoothSolver	4.2818600000000002e-03	2.5515500000000001e-08	2	true	smoothSolver	1.5276600000000000e-02	8.6651699999999998e-08	2	true	GAMG	1.0103400000000000e-02	5.4575399999999997e-04	1	true
0.0006                  	smoothSolver	3.5301000000000000e-03	5.0503099999999998e-08	2	3.2781300000000002e-03	4.5378300000000001e-08	2	3.3215100000000002e-03	4.4936199999999997e-08	2	false	smoothSolver	4.2541300000000001e-03	2.5298100000000001e-08	2	true	smoothSolver	1.5014599999999999e-02	8.5009500000000004e-08	2	true	GAMG	9.9424200000000004e-03	5.3125600000000002e-04	1	true
0.00061                 	smoothSolver	3.5037400000000000e-03	4.9690999999999998e-08	2	3.2577999999999999e-03	4.4981300000000001e-08	2	3.3008099999999999e-03	4.4579900000000001e-08	2	false	smoothSolver	4.2267099999999998e-03	2.5115899999999999e-08	2	true	smoothSolver	1.4761300000000000e-02	8.3476899999999995e-08	2	true	GAMG	9.7949000000000005e-03	5.2379599999999998e-04	1	true
0.00062                 	smoothSolver	3.4785599999999999e-03	4.8911500000000001e-08	2	3.2384599999999999e-03	4.4610699999999999e-08	2	3.2804499999999999e-03	4.4236300000000003e-08	2	false	smoothSolver	4.1995899999999996e-03	2.4924900000000001e-08	2	true	smoothSolver	1.4515999999999999e-02	8.1998599999999997e-08	2	true	GAMG	9.6185899999999998e-03	5.1205399999999996e-04	1	true
0.00063                 	smoothSolver	3.4542399999999999e-03	4.8156200000000002e-08	2	3.2195499999999998e-03	4.4241499999999999e-08	2	3.2604900000000000e-03	4.3912000000000003e-08	2	false	smoothSolver	4.1727600000000002e-03	2.4767899999999998e-08	2	true	smoothSolver	1.4278600000000001e-02	8.0535300000000003e-08	2	true	GAMG	9.4376900000000003e-03	5.0131199999999996e-04	1	true
0.00064                 	smoothSolver	3.4313000000000000e-03	4.7456300000000001e-08	2	3.2012299999999998e-03	4.3882100000000001e-08	2	3.2410799999999999e-03	4.3591899999999999e-08	2	false	smoothSolver	4.1462199999999999e-03	2.4546300000000000e-08	2	true	smoothSolver	1.4048600000000000e-02	7.9174200000000002e-08	2	true	GAMG	9.2918400000000009e-03	4.9377899999999996e-04	1	true
0.00065                 	smoothSolver	3.4091099999999999e-03	4.6784300000000000e-08	2	3.1835300000000000e-03	4.3533100000000002e-08	2	3.2224100000000002e-03	4.3294200000000001e-08	2	false	smoothSolver	4.1199699999999997e-03	2.4383699999999999e-08	2	true	smoothSolver	1.3825600000000000e-02	7.7822600000000000e-08	2	true	GAMG	9.1353500000000004e-03	4.8904600000000003e-04	1	true
0.00066                 	smoothSolver	3.3877700000000000e-03	4.6131200000000002e-08	2	3.1660799999999999e-03	4.3197199999999997e-08	2	3.2040100000000002e-03	4.2987599999999999e-08	2	false	smoothSolver	4.0939899999999996e-03	2.4214600000000000e-08	2	true	smoothSolver	1.3609400000000001e-02	7.6472699999999996e-08	2	true	GAMG	8.9908599999999998e-03	4.8058999999999998e-04	1	true
0.00067                 	smoothSolver	3.3676100000000000e-03	4.5510700000000000e-08	2	3.1490500000000000e-03	4.2869400000000000e-08	2	3.1862399999999999e-03	4.2686000000000003e-08	2	false	smoothSolver	4.0683000000000004e-03	2.4012399999999999e-08	2	true	smoothSolver	1.3399700000000000e-02	7.5227800000000006e-08	2	true	GAMG	8.8278499999999999e-03	4.8127499999999998e-04	1	true
0.00068                 	smoothSolver	3.3481700000000001e-03	4.4913500000000000e-08	2	3.1326100000000001e-03	4.2546399999999998e-08	2	3.1690300000000002e-03	4.2404199999999998e-08	2	false	smoothSolver	4.0428800000000004e-03	2.3846600000000000e-08	2	true	smoothSolver	1.3196100000000001e-02	7.4037099999999995e-08	2	true	GAMG	8.6331900000000007e-03	4.6097199999999998e-04	1	true
0.00069                 	smoothSolver	3.3297999999999999e-03	4.4332000000000003e-08	2	3.1161200000000000e-03	4.2245499999999999e-08	2	3.1522700000000000e-03	4.2126299999999999e-08	2	false	smoothSolver	4.0177199999999998e-03	2.3695100000000000e-08	2	true	smoothSolver	1.2998400000000000e-02	7.2832500000000001e-08	2	true	GAMG	8.4966099999999999e-03	4.5297399999999998e-04	1	true
0.0007                  	smoothSolver	3.3124700000000001e-03	4.3774499999999999e-08	2	3.1002800000000000e-03	4.1950199999999999e-08	2	3.1359900000000000e-03	4.1860099999999998e-08	2	false	smoothSolver	3.9928300000000002e-03	2.3516899999999999e-08	2	true	smoothSolver	1.2806400000000001e-02	7.1697499999999997e-08	2	true	GAMG	8.3339899999999995e-03	4.4486500000000002e-04	1	true
0.00071                 	smoothSolver	3.2960400000000001e-03	4.3250400000000002e-08	2	3.0847499999999998e-03	4.1659500000000003e-08	2	3.1201900000000001e-03	4.1598699999999998e-08	2	false	smoothSolver	3.9681999999999999e-03	2.3362300000000001e-08	2	true	smoothSolver	1.2619800000000000e-02	7.0608500000000007e-08	2	true	GAMG	8.1778000000000007e-03	4.3898599999999999e-04	1	true
0.00072                 	smoothSolver	3.2801800000000002e-03	4.2745800000000000e-08	2	3.0698100000000001e-03	4.1380499999999998e-08	2	3.1050800000000001e-03	4.1343799999999999e-08	2	false	smoothSolver	3.9438299999999997e-03	2.3206500000000000e-08	2	true	smoothSolver	1.2438299999999999e-02	6.9560999999999997e-08	2	true	GAMG	8.0351699999999995e-03	4.2828300000000001e-04	1	true
0.00073                 	smoothSolver	3.2647700000000002e-03	4.2253199999999999e-08	2	3.0551100000000002e-03	4.1107300000000002e-08	2	3.0900200000000002e-03	4.1087899999999998e-08	2	false	smoothSolver	3.9197099999999999e-03	2.3036799999999999e-08	2	true	smoothSolver	1.2261899999999999e-02	6.8391299999999996e-08	2	true	GAMG	7.9407999999999996e-03	4.3778500000000000e-04	1	true
0.00074                 	smoothSolver	3.2494500000000001e-03	4.1763400000000003e-08	2	3.0413900000000002e-03	4.0850300000000002e-08	2	3.0757100000000002e-03	4.0832800000000002e-08	2	false	smoothSolver	3.8958299999999999e-03	2.2874600000000000e-08	2	true	smoothSolver	1.2090200000000001e-02	6.7455900000000000e-08	2	true	GAMG	7.7494100000000000e-03	4.1481500000000002e-04	1	true
0.00075                 	smoothSolver	3.2349700000000002e-03	4.1294300000000002e-08	2	3.0271700000000000e-03	4.0595900000000003e-08	2	3.0612100000000000e-03	4.0588300000000002e-08	2	false	smoothSolver	3.8722000000000001e-03	2.2747100000000001e-08	2	true	smoothSolver	1.1923000000000000e-02	6.6438700000000001e-08	2	true	GAMG	7.5966300000000000e-03	4.0570500000000002e-04	1	true
0.00076                 	smoothSolver	3.2205900000000002e-03	4.0845900000000002e-08	2	3.0131699999999999e-03	4.0340000000000003e-08	2	3.0469199999999998e-03	4.0344299999999997e-08	2	false	smoothSolver	3.8488099999999998e-03	2.2565099999999999e-08	2	true	smoothSolver	1.1760300000000000e-02	6.5492300000000005e-08	2	true	GAMG	7.4989399999999999e-03	4.0572999999999998e-04	1	true
0.00077                 	smoothSolver	3.2065900000000000e-03	4.0416200000000000e-08	2	2.9992500000000002e-03	4.0100399999999997e-08	2	3.0325399999999998e-03	4.0108599999999997e-08	2	false	smoothSolver	3.8256599999999998e-03	2.2429300000000002e-08	2	true	smoothSolver	1.1601800000000001e-02	6.4522000000000000e-08	2	true	GAMG	7.4276899999999998e-03	4.1561000000000001e-04	1	true